   2   2   0   0
  0.8961120E+03  0.1016000E-08  0.1176000E-08  0.1500000E-08  0.5000000E-15
  1.000000000000000E-004
  CAR 
 Beta12Borophene !The name of the system 
      1.75926483    -11.31921326  301    -10.23500705      1.00000000
    -11.319  0.0000E+00  0.0000E+00  0.0000E+00  0.0000E+00
    -11.276  0.0000E+00  0.0000E+00  0.0000E+00  0.0000E+00
    -11.232  0.0000E+00  0.0000E+00  0.0000E+00  0.0000E+00
    -11.188  0.0000E+00  0.0000E+00  0.0000E+00  0.0000E+00
    -11.145 -0.2654E-30 -0.2654E-30 -0.1157E-31 -0.1157E-31
    -11.101 -0.2778E-27 -0.2778E-27 -0.1212E-28 -0.1212E-28
    -11.058 -0.1983E-24 -0.1983E-24 -0.8658E-26 -0.8658E-26
    -11.014 -0.9646E-22 -0.9645E-22 -0.4214E-23 -0.4214E-23
    -10.970 -0.3194E-19 -0.3194E-19 -0.1397E-20 -0.1397E-20
    -10.927 -0.7198E-17 -0.7197E-17 -0.3152E-18 -0.3152E-18
    -10.883 -0.1069E-14 -0.1069E-14 -0.4693E-16 -0.4692E-16
    -10.840 -0.1105E-12 -0.1105E-12 -0.4865E-14 -0.4865E-14
    -10.796 -0.7738E-11 -0.7738E-11 -0.3422E-12 -0.3422E-12
    -10.752 -0.3657E-09 -0.3657E-09 -0.1629E-10 -0.1629E-10
    -10.709 -0.1162E-07 -0.1162E-07 -0.5229E-09 -0.5229E-09
    -10.665 -0.2467E-06 -0.2467E-06 -0.1128E-07 -0.1128E-07
    -10.622 -0.3465E-05 -0.3465E-05 -0.1623E-06 -0.1623E-06
    -10.578 -0.3164E-04 -0.3164E-04 -0.1542E-05 -0.1542E-05
    -10.535 -0.1815E-03 -0.1815E-03 -0.9454E-05 -0.9454E-05
    -10.491 -0.6001E-03 -0.6001E-03 -0.3561E-04 -0.3561E-04
    -10.447 -0.7889E-03 -0.7889E-03 -0.7001E-04 -0.7001E-04
    -10.404  0.1572E-02  0.1572E-02 -0.1467E-05 -0.1469E-05
    -10.360  0.8461E-02  0.8461E-02  0.3674E-03  0.3674E-03
    -10.317  0.1555E-01  0.1555E-01  0.1045E-02  0.1045E-02
    -10.273  0.1497E-01  0.1497E-01  0.1698E-02  0.1698E-02
    -10.229  0.7445E-02  0.7445E-02  0.2022E-02  0.2022E-02
    -10.186  0.1042E-02  0.1042E-02  0.2068E-02  0.2068E-02
    -10.142 -0.8383E-03 -0.8383E-03  0.2031E-02  0.2031E-02
    -10.099 -0.5373E-03 -0.5373E-03  0.2008E-02  0.2008E-02
    -10.055 -0.1506E-03 -0.1506E-03  0.2001E-02  0.2001E-02
    -10.011 -0.2473E-04 -0.2473E-04  0.2000E-02  0.2000E-02
     -9.968 -0.2565E-05 -0.2566E-05  0.2000E-02  0.2000E-02
     -9.924 -0.1735E-06 -0.1735E-06  0.2000E-02  0.2000E-02
     -9.881 -0.7778E-08 -0.7778E-08  0.2000E-02  0.2000E-02
     -9.837 -0.2331E-09 -0.2331E-09  0.2000E-02  0.2000E-02
     -9.793 -0.4700E-11 -0.4700E-11  0.2000E-02  0.2000E-02
     -9.750 -0.6399E-13 -0.6400E-13  0.2000E-02  0.2000E-02
     -9.706 -0.5908E-15 -0.5908E-15  0.2000E-02  0.2000E-02
     -9.663  0.0000E+00  0.0000E+00  0.2000E-02  0.2000E-02
     -9.619  0.0000E+00  0.0000E+00  0.2000E-02  0.2000E-02
     -9.575  0.0000E+00  0.0000E+00  0.2000E-02  0.2000E-02
     -9.532  0.0000E+00  0.0000E+00  0.2000E-02  0.2000E-02
     -9.488  0.0000E+00  0.0000E+00  0.2000E-02  0.2000E-02
     -9.445  0.0000E+00  0.0000E+00  0.2000E-02  0.2000E-02
     -9.401  0.0000E+00  0.0000E+00  0.2000E-02  0.2000E-02
     -9.357  0.0000E+00  0.0000E+00  0.2000E-02  0.2000E-02
     -9.314  0.0000E+00  0.0000E+00  0.2000E-02  0.2000E-02
     -9.270  0.0000E+00  0.0000E+00  0.2000E-02  0.2000E-02
     -9.227  0.0000E+00  0.0000E+00  0.2000E-02  0.2000E-02
     -9.183  0.0000E+00  0.0000E+00  0.2000E-02  0.2000E-02
     -9.139  0.0000E+00  0.0000E+00  0.2000E-02  0.2000E-02
     -9.096  0.0000E+00  0.0000E+00  0.2000E-02  0.2000E-02
     -9.052  0.0000E+00  0.0000E+00  0.2000E-02  0.2000E-02
     -9.009  0.0000E+00  0.0000E+00  0.2000E-02  0.2000E-02
     -8.965  0.0000E+00  0.0000E+00  0.2000E-02  0.2000E-02
     -8.921  0.0000E+00  0.0000E+00  0.2000E-02  0.2000E-02
     -8.878  0.0000E+00  0.0000E+00  0.2000E-02  0.2000E-02
     -8.834  0.0000E+00  0.0000E+00  0.2000E-02  0.2000E-02
     -8.791  0.0000E+00  0.0000E+00  0.2000E-02  0.2000E-02
     -8.747  0.0000E+00  0.0000E+00  0.2000E-02  0.2000E-02
     -8.704  0.0000E+00  0.0000E+00  0.2000E-02  0.2000E-02
     -8.660  0.0000E+00  0.0000E+00  0.2000E-02  0.2000E-02
     -8.616  0.0000E+00  0.0000E+00  0.2000E-02  0.2000E-02
     -8.573  0.0000E+00  0.0000E+00  0.2000E-02  0.2000E-02
     -8.529  0.0000E+00  0.0000E+00  0.2000E-02  0.2000E-02
     -8.486  0.0000E+00  0.0000E+00  0.2000E-02  0.2000E-02
     -8.442  0.0000E+00  0.0000E+00  0.2000E-02  0.2000E-02
     -8.398  0.0000E+00  0.0000E+00  0.2000E-02  0.2000E-02
     -8.355  0.0000E+00  0.0000E+00  0.2000E-02  0.2000E-02
     -8.311  0.0000E+00  0.0000E+00  0.2000E-02  0.2000E-02
     -8.268  0.0000E+00  0.0000E+00  0.2000E-02  0.2000E-02
     -8.224  0.0000E+00  0.0000E+00  0.2000E-02  0.2000E-02
     -8.180  0.0000E+00  0.0000E+00  0.2000E-02  0.2000E-02
     -8.137  0.0000E+00  0.0000E+00  0.2000E-02  0.2000E-02
     -8.093  0.0000E+00  0.0000E+00  0.2000E-02  0.2000E-02
     -8.050  0.0000E+00  0.0000E+00  0.2000E-02  0.2000E-02
     -8.006  0.0000E+00  0.0000E+00  0.2000E-02  0.2000E-02
     -7.962  0.0000E+00  0.0000E+00  0.2000E-02  0.2000E-02
     -7.919  0.0000E+00  0.0000E+00  0.2000E-02  0.2000E-02
     -7.875  0.0000E+00  0.0000E+00  0.2000E-02  0.2000E-02
     -7.832  0.0000E+00  0.0000E+00  0.2000E-02  0.2000E-02
     -7.788  0.0000E+00  0.0000E+00  0.2000E-02  0.2000E-02
     -7.744  0.0000E+00  0.0000E+00  0.2000E-02  0.2000E-02
     -7.701  0.0000E+00  0.0000E+00  0.2000E-02  0.2000E-02
     -7.657  0.0000E+00  0.0000E+00  0.2000E-02  0.2000E-02
     -7.614  0.0000E+00  0.0000E+00  0.2000E-02  0.2000E-02
     -7.570  0.0000E+00  0.0000E+00  0.2000E-02  0.2000E-02
     -7.526  0.0000E+00  0.0000E+00  0.2000E-02  0.2000E-02
     -7.483  0.0000E+00  0.0000E+00  0.2000E-02  0.2000E-02
     -7.439  0.0000E+00  0.0000E+00  0.2000E-02  0.2000E-02
     -7.396  0.0000E+00  0.0000E+00  0.2000E-02  0.2000E-02
     -7.352  0.0000E+00  0.0000E+00  0.2000E-02  0.2000E-02
     -7.308  0.0000E+00  0.0000E+00  0.2000E-02  0.2000E-02
     -7.265  0.0000E+00  0.0000E+00  0.2000E-02  0.2000E-02
     -7.221  0.0000E+00  0.0000E+00  0.2000E-02  0.2000E-02
     -7.178  0.0000E+00  0.0000E+00  0.2000E-02  0.2000E-02
     -7.134  0.0000E+00  0.0000E+00  0.2000E-02  0.2000E-02
     -7.091  0.0000E+00  0.0000E+00  0.2000E-02  0.2000E-02
     -7.047  0.0000E+00  0.0000E+00  0.2000E-02  0.2000E-02
     -7.003  0.0000E+00  0.0000E+00  0.2000E-02  0.2000E-02
     -6.960  0.0000E+00  0.0000E+00  0.2000E-02  0.2000E-02
     -6.916  0.0000E+00  0.0000E+00  0.2000E-02  0.2000E-02
     -6.873  0.0000E+00  0.0000E+00  0.2000E-02  0.2000E-02
     -6.829  0.0000E+00  0.0000E+00  0.2000E-02  0.2000E-02
     -6.785  0.0000E+00  0.0000E+00  0.2000E-02  0.2000E-02
     -6.742  0.0000E+00  0.0000E+00  0.2000E-02  0.2000E-02
     -6.698  0.0000E+00  0.0000E+00  0.2000E-02  0.2000E-02
     -6.655  0.0000E+00  0.0000E+00  0.2000E-02  0.2000E-02
     -6.611  0.0000E+00  0.0000E+00  0.2000E-02  0.2000E-02
     -6.567  0.0000E+00  0.0000E+00  0.2000E-02  0.2000E-02
     -6.524  0.0000E+00  0.0000E+00  0.2000E-02  0.2000E-02
     -6.480  0.0000E+00  0.0000E+00  0.2000E-02  0.2000E-02
     -6.437  0.0000E+00  0.0000E+00  0.2000E-02  0.2000E-02
     -6.393  0.0000E+00  0.0000E+00  0.2000E-02  0.2000E-02
     -6.349  0.0000E+00  0.0000E+00  0.2000E-02  0.2000E-02
     -6.306  0.0000E+00  0.0000E+00  0.2000E-02  0.2000E-02
     -6.262  0.0000E+00  0.0000E+00  0.2000E-02  0.2000E-02
     -6.219  0.0000E+00  0.0000E+00  0.2000E-02  0.2000E-02
     -6.175  0.0000E+00  0.0000E+00  0.2000E-02  0.2000E-02
     -6.131  0.0000E+00  0.0000E+00  0.2000E-02  0.2000E-02
     -6.088  0.0000E+00  0.0000E+00  0.2000E-02  0.2000E-02
     -6.044  0.0000E+00  0.0000E+00  0.2000E-02  0.2000E-02
     -6.001  0.0000E+00  0.0000E+00  0.2000E-02  0.2000E-02
     -5.957  0.0000E+00  0.0000E+00  0.2000E-02  0.2000E-02
     -5.913  0.0000E+00  0.0000E+00  0.2000E-02  0.2000E-02
     -5.870  0.0000E+00  0.0000E+00  0.2000E-02  0.2000E-02
     -5.826  0.0000E+00  0.0000E+00  0.2000E-02  0.2000E-02
     -5.783  0.0000E+00  0.0000E+00  0.2000E-02  0.2000E-02
     -5.739  0.0000E+00  0.0000E+00  0.2000E-02  0.2000E-02
     -5.695  0.0000E+00  0.0000E+00  0.2000E-02  0.2000E-02
     -5.652  0.0000E+00  0.0000E+00  0.2000E-02  0.2000E-02
     -5.608  0.0000E+00  0.0000E+00  0.2000E-02  0.2000E-02
     -5.565  0.0000E+00  0.0000E+00  0.2000E-02  0.2000E-02
     -5.521  0.0000E+00  0.0000E+00  0.2000E-02  0.2000E-02
     -5.477  0.0000E+00  0.0000E+00  0.2000E-02  0.2000E-02
     -5.434  0.0000E+00  0.0000E+00  0.2000E-02  0.2000E-02
     -5.390  0.0000E+00  0.0000E+00  0.2000E-02  0.2000E-02
     -5.347  0.0000E+00  0.0000E+00  0.2000E-02  0.2000E-02
     -5.303  0.0000E+00  0.0000E+00  0.2000E-02  0.2000E-02
     -5.260  0.0000E+00  0.0000E+00  0.2000E-02  0.2000E-02
     -5.216  0.0000E+00  0.0000E+00  0.2000E-02  0.2000E-02
     -5.172  0.0000E+00  0.0000E+00  0.2000E-02  0.2000E-02
     -5.129  0.0000E+00  0.0000E+00  0.2000E-02  0.2000E-02
     -5.085  0.0000E+00  0.0000E+00  0.2000E-02  0.2000E-02
     -5.042  0.0000E+00  0.0000E+00  0.2000E-02  0.2000E-02
     -4.998  0.0000E+00  0.0000E+00  0.2000E-02  0.2000E-02
     -4.954  0.0000E+00  0.0000E+00  0.2000E-02  0.2000E-02
     -4.911  0.0000E+00  0.0000E+00  0.2000E-02  0.2000E-02
     -4.867  0.0000E+00  0.0000E+00  0.2000E-02  0.2000E-02
     -4.824  0.0000E+00  0.0000E+00  0.2000E-02  0.2000E-02
     -4.780  0.0000E+00  0.0000E+00  0.2000E-02  0.2000E-02
     -4.736  0.0000E+00  0.0000E+00  0.2000E-02  0.2000E-02
     -4.693  0.0000E+00  0.0000E+00  0.2000E-02  0.2000E-02
     -4.649  0.0000E+00  0.0000E+00  0.2000E-02  0.2000E-02
     -4.606  0.0000E+00  0.0000E+00  0.2000E-02  0.2000E-02
     -4.562  0.0000E+00  0.0000E+00  0.2000E-02  0.2000E-02
     -4.518  0.0000E+00  0.0000E+00  0.2000E-02  0.2000E-02
     -4.475  0.0000E+00  0.0000E+00  0.2000E-02  0.2000E-02
     -4.431  0.0000E+00  0.0000E+00  0.2000E-02  0.2000E-02
     -4.388  0.0000E+00  0.0000E+00  0.2000E-02  0.2000E-02
     -4.344  0.0000E+00  0.0000E+00  0.2000E-02  0.2000E-02
     -4.300  0.0000E+00  0.0000E+00  0.2000E-02  0.2000E-02
     -4.257  0.0000E+00  0.0000E+00  0.2000E-02  0.2000E-02
     -4.213  0.0000E+00  0.0000E+00  0.2000E-02  0.2000E-02
     -4.170  0.0000E+00  0.0000E+00  0.2000E-02  0.2000E-02
     -4.126  0.0000E+00  0.0000E+00  0.2000E-02  0.2000E-02
     -4.082  0.0000E+00  0.0000E+00  0.2000E-02  0.2000E-02
     -4.039  0.0000E+00  0.0000E+00  0.2000E-02  0.2000E-02
     -3.995  0.0000E+00  0.0000E+00  0.2000E-02  0.2000E-02
     -3.952  0.0000E+00  0.0000E+00  0.2000E-02  0.2000E-02
     -3.908  0.0000E+00  0.0000E+00  0.2000E-02  0.2000E-02
     -3.864  0.0000E+00  0.0000E+00  0.2000E-02  0.2000E-02
     -3.821  0.0000E+00  0.0000E+00  0.2000E-02  0.2000E-02
     -3.777  0.0000E+00  0.0000E+00  0.2000E-02  0.2000E-02
     -3.734  0.0000E+00  0.0000E+00  0.2000E-02  0.2000E-02
     -3.690  0.0000E+00  0.0000E+00  0.2000E-02  0.2000E-02
     -3.647  0.0000E+00  0.0000E+00  0.2000E-02  0.2000E-02
     -3.603  0.0000E+00  0.0000E+00  0.2000E-02  0.2000E-02
     -3.559  0.0000E+00  0.0000E+00  0.2000E-02  0.2000E-02
     -3.516  0.0000E+00  0.0000E+00  0.2000E-02  0.2000E-02
     -3.472  0.0000E+00  0.0000E+00  0.2000E-02  0.2000E-02
     -3.429  0.0000E+00  0.0000E+00  0.2000E-02  0.2000E-02
     -3.385  0.0000E+00  0.0000E+00  0.2000E-02  0.2000E-02
     -3.341  0.0000E+00  0.0000E+00  0.2000E-02  0.2000E-02
     -3.298  0.0000E+00  0.0000E+00  0.2000E-02  0.2000E-02
     -3.254  0.0000E+00  0.0000E+00  0.2000E-02  0.2000E-02
     -3.211  0.0000E+00  0.0000E+00  0.2000E-02  0.2000E-02
     -3.167  0.0000E+00  0.0000E+00  0.2000E-02  0.2000E-02
     -3.123  0.0000E+00  0.0000E+00  0.2000E-02  0.2000E-02
     -3.080  0.0000E+00  0.0000E+00  0.2000E-02  0.2000E-02
     -3.036  0.0000E+00  0.0000E+00  0.2000E-02  0.2000E-02
     -2.993  0.0000E+00  0.0000E+00  0.2000E-02  0.2000E-02
     -2.949  0.0000E+00  0.0000E+00  0.2000E-02  0.2000E-02
     -2.905  0.0000E+00  0.0000E+00  0.2000E-02  0.2000E-02
     -2.862  0.0000E+00  0.0000E+00  0.2000E-02  0.2000E-02
     -2.818  0.0000E+00  0.0000E+00  0.2000E-02  0.2000E-02
     -2.775  0.0000E+00  0.0000E+00  0.2000E-02  0.2000E-02
     -2.731  0.0000E+00  0.0000E+00  0.2000E-02  0.2000E-02
     -2.687  0.0000E+00  0.0000E+00  0.2000E-02  0.2000E-02
     -2.644  0.0000E+00  0.0000E+00  0.2000E-02  0.2000E-02
     -2.600  0.0000E+00  0.0000E+00  0.2000E-02  0.2000E-02
     -2.557  0.0000E+00  0.0000E+00  0.2000E-02  0.2000E-02
     -2.513  0.0000E+00  0.0000E+00  0.2000E-02  0.2000E-02
     -2.469  0.0000E+00  0.0000E+00  0.2000E-02  0.2000E-02
     -2.426  0.0000E+00  0.0000E+00  0.2000E-02  0.2000E-02
     -2.382  0.0000E+00  0.0000E+00  0.2000E-02  0.2000E-02
     -2.339  0.0000E+00  0.0000E+00  0.2000E-02  0.2000E-02
     -2.295  0.0000E+00  0.0000E+00  0.2000E-02  0.2000E-02
     -2.251  0.0000E+00  0.0000E+00  0.2000E-02  0.2000E-02
     -2.208  0.0000E+00  0.0000E+00  0.2000E-02  0.2000E-02
     -2.164  0.0000E+00  0.0000E+00  0.2000E-02  0.2000E-02
     -2.121  0.0000E+00  0.0000E+00  0.2000E-02  0.2000E-02
     -2.077  0.0000E+00  0.0000E+00  0.2000E-02  0.2000E-02
     -2.033  0.0000E+00  0.0000E+00  0.2000E-02  0.2000E-02
     -1.990  0.0000E+00  0.0000E+00  0.2000E-02  0.2000E-02
     -1.946  0.0000E+00  0.0000E+00  0.2000E-02  0.2000E-02
     -1.903  0.0000E+00  0.0000E+00  0.2000E-02  0.2000E-02
     -1.859  0.0000E+00  0.0000E+00  0.2000E-02  0.2000E-02
     -1.816  0.0000E+00  0.0000E+00  0.2000E-02  0.2000E-02
     -1.772  0.0000E+00  0.0000E+00  0.2000E-02  0.2000E-02
     -1.728  0.0000E+00  0.0000E+00  0.2000E-02  0.2000E-02
     -1.685  0.0000E+00  0.0000E+00  0.2000E-02  0.2000E-02
     -1.641  0.0000E+00  0.0000E+00  0.2000E-02  0.2000E-02
     -1.598  0.0000E+00  0.0000E+00  0.2000E-02  0.2000E-02
     -1.554  0.0000E+00  0.0000E+00  0.2000E-02  0.2000E-02
     -1.510  0.0000E+00  0.0000E+00  0.2000E-02  0.2000E-02
     -1.467  0.0000E+00  0.0000E+00  0.2000E-02  0.2000E-02
     -1.423  0.0000E+00  0.0000E+00  0.2000E-02  0.2000E-02
     -1.380  0.0000E+00  0.0000E+00  0.2000E-02  0.2000E-02
     -1.336  0.0000E+00  0.0000E+00  0.2000E-02  0.2000E-02
     -1.292  0.0000E+00  0.0000E+00  0.2000E-02  0.2000E-02
     -1.249  0.0000E+00  0.0000E+00  0.2000E-02  0.2000E-02
     -1.205  0.0000E+00  0.0000E+00  0.2000E-02  0.2000E-02
     -1.162  0.0000E+00  0.0000E+00  0.2000E-02  0.2000E-02
     -1.118  0.0000E+00  0.0000E+00  0.2000E-02  0.2000E-02
     -1.074  0.0000E+00  0.0000E+00  0.2000E-02  0.2000E-02
     -1.031  0.0000E+00  0.0000E+00  0.2000E-02  0.2000E-02
     -0.987  0.0000E+00  0.0000E+00  0.2000E-02  0.2000E-02
     -0.944  0.0000E+00  0.0000E+00  0.2000E-02  0.2000E-02
     -0.900 -0.1562E-30 -0.1535E-30  0.2000E-02  0.2000E-02
     -0.856 -0.1494E-27 -0.1470E-27  0.2000E-02  0.2000E-02
     -0.813 -0.9747E-25 -0.9601E-25  0.2000E-02  0.2000E-02
     -0.769 -0.4332E-22 -0.4271E-22  0.2000E-02  0.2000E-02
     -0.726 -0.1311E-19 -0.1293E-19  0.2000E-02  0.2000E-02
     -0.682 -0.2698E-17 -0.2665E-17  0.2000E-02  0.2000E-02
     -0.638 -0.3652E-15 -0.3609E-15  0.2000E-02  0.2000E-02
     -0.595 -0.3448E-13 -0.3413E-13  0.2000E-02  0.2000E-02
     -0.551 -0.2202E-11 -0.2182E-11  0.2000E-02  0.2000E-02
     -0.508 -0.9487E-10 -0.9406E-10  0.2000E-02  0.2000E-02
     -0.464 -0.2744E-08 -0.2724E-08  0.2000E-02  0.2000E-02
     -0.420 -0.5296E-07 -0.5261E-07  0.2000E-02  0.2000E-02
     -0.377 -0.6745E-06 -0.6708E-06  0.2000E-02  0.2000E-02
     -0.333 -0.5567E-05 -0.5542E-05  0.2000E-02  0.2000E-02
     -0.290 -0.2873E-04 -0.2864E-04  0.1998E-02  0.1998E-02
     -0.246 -0.8508E-04 -0.8493E-04  0.1995E-02  0.1995E-02
     -0.203 -0.1015E-03 -0.1017E-03  0.1990E-02  0.1990E-02
     -0.159  0.1596E-03  0.1584E-03  0.1997E-02  0.1997E-02
     -0.115  0.8175E-03  0.8156E-03  0.2033E-02  0.2033E-02
     -0.072  0.1678E-02  0.1676E-02  0.2106E-02  0.2106E-02
     -0.028  0.2940E-02  0.2936E-02  0.2234E-02  0.2234E-02
      0.015  0.5018E-02  0.5013E-02  0.2453E-02  0.2452E-02
      0.059  0.7388E-02  0.7385E-02  0.2775E-02  0.2774E-02
      0.103  0.1009E-01  0.1009E-01  0.3215E-02  0.3214E-02
      0.146  0.1406E-01  0.1405E-01  0.3828E-02  0.3827E-02
      0.190  0.1735E-01  0.1736E-01  0.4584E-02  0.4584E-02
      0.233  0.1647E-01  0.1648E-01  0.5303E-02  0.5302E-02
      0.277  0.1162E-01  0.1162E-01  0.5809E-02  0.5809E-02
      0.321  0.6413E-02  0.6414E-02  0.6089E-02  0.6088E-02
      0.364  0.3503E-02  0.3501E-02  0.6241E-02  0.6241E-02
      0.408  0.3335E-02  0.3328E-02  0.6387E-02  0.6386E-02
      0.451  0.6305E-02  0.6291E-02  0.6662E-02  0.6660E-02
      0.495  0.1162E-01  0.1161E-01  0.7168E-02  0.7166E-02
      0.539  0.1637E-01  0.1638E-01  0.7882E-02  0.7880E-02
      0.582  0.1825E-01  0.1826E-01  0.8677E-02  0.8677E-02
      0.626  0.1557E-01  0.1558E-01  0.9356E-02  0.9356E-02
      0.669  0.8901E-02  0.8904E-02  0.9744E-02  0.9744E-02
      0.713  0.3055E-02  0.3055E-02  0.9877E-02  0.9877E-02
      0.757  0.1111E-02  0.1110E-02  0.9926E-02  0.9925E-02
      0.800  0.1073E-02  0.1073E-02  0.9972E-02  0.9972E-02
      0.844  0.6969E-03  0.6979E-03  0.1000E-01  0.1000E-01
      0.887  0.1236E-03  0.1242E-03  0.1001E-01  0.1001E-01
      0.931 -0.9436E-04 -0.9429E-04  0.1000E-01  0.1000E-01
      0.975 -0.6719E-04 -0.6727E-04  0.1000E-01  0.1000E-01
      1.018 -0.2017E-04 -0.2021E-04  0.1000E-01  0.1000E-01
      1.062 -0.3511E-05 -0.3519E-05  0.1000E-01  0.1000E-01
      1.105 -0.3842E-06 -0.3854E-06  0.1000E-01  0.1000E-01
      1.149 -0.2735E-07 -0.2744E-07  0.1000E-01  0.1000E-01
      1.193 -0.1288E-08 -0.1293E-08  0.1000E-01  0.1000E-01
      1.236 -0.4051E-10 -0.4070E-10  0.1000E-01  0.1000E-01
      1.280 -0.8569E-12 -0.8612E-12  0.1000E-01  0.1000E-01
      1.323 -0.1223E-13 -0.1230E-13  0.1000E-01  0.1000E-01
      1.367 -0.1188E-15 -0.1188E-15  0.1000E-01  0.1000E-01
      1.411 -0.1132E-17 -0.1132E-17  0.1000E-01  0.1000E-01
      1.454  0.0000E+00  0.0000E+00  0.1000E-01  0.1000E-01
      1.498  0.0000E+00  0.0000E+00  0.1000E-01  0.1000E-01
      1.541  0.0000E+00  0.0000E+00  0.1000E-01  0.1000E-01
      1.585  0.0000E+00  0.0000E+00  0.1000E-01  0.1000E-01
      1.628  0.0000E+00  0.0000E+00  0.1000E-01  0.1000E-01
      1.672  0.0000E+00  0.0000E+00  0.1000E-01  0.1000E-01
      1.716  0.0000E+00  0.0000E+00  0.1000E-01  0.1000E-01
      1.759  0.0000E+00  0.0000E+00  0.1000E-01  0.1000E-01
