    2    2 1000    2
  0.8961120E+03  0.1016000E-08  0.1176000E-08  0.1500000E-08  0.5000000E-15
  1.000000000000000E-004
  CAR 
 Beta12Borophene !The name of the system 
    2    4    5
 
  0.0000000E+00  0.0000000E+00  0.2500000E+00  0.1111111E+00
   1      -10.319213    -10.319213
   2       -0.084621     -0.084517
   3        0.111607      0.111652
   4        0.555628      0.555611
   5        0.759211      0.759265
 
  0.3333333E+00  0.0000000E+00  0.2500000E+00  0.2222222E+00
   1      -10.319201    -10.319201
   2        0.058342      0.058439
   3        0.200287      0.200324
   4        0.496220      0.496328
   5        0.612370      0.612366
 
  0.0000000E+00  0.3333333E+00  0.2500000E+00  0.2222222E+00
   1      -10.319199    -10.319198
   2        0.021233      0.021323
   3        0.171049      0.171082
   4        0.357951      0.358077
   5        0.567303      0.567352
 
  0.3333333E+00  0.3333333E+00  0.2500000E+00  0.4444444E+00
   1      -10.319187    -10.319187
   2        0.156171      0.156236
   3        0.247207      0.247247
   4        0.487778      0.487944
   5        0.597276      0.597305
