Warning: no access to tty (Bad file descriptor).
Thus no job control in this shell.
stty: standard input: Inappropriate ioctl for device
 running on    4 total cores
 distrk:  each k-point on    4 cores,    1 groups
 distr:  one band on    4 cores,    1 groups
 using from now: INCAR     
 vasp.5.3.3 18Dez12 (build Aug 26 2015 16:06:49) complex                        
  
 POSCAR found :  1 types and       2 ions
 scaLAPACK will be used

 ----------------------------------------------------------------------------- 
|                                                                             |
|  ADVICE TO THIS USER RUNNING 'VASP/VAMP'   (HEAR YOUR MASTER'S VOICE ...):  |
|                                                                             |
|      You have a (more or less) 'small supercell' and for smaller cells      |
|      it is recommended  to use the reciprocal-space projection scheme!      |
|      The real space optimization is not  efficient for small cells and it   |
|      is also less accurate ...                                              |
|      Therefore set LREAL=.FALSE. in the  INCAR file                         |
|                                                                             |
 ----------------------------------------------------------------------------- 

 LDA part: xc-table for Pade appr. of Perdew
 POSCAR, INCAR and KPOINTS ok, starting setup
 WARNING: small aliasing (wrap around) errors must be expected
 FFT: planning ...
 WAVECAR not read
 entering main loop
       N       E                     dE             d eps       ncg     rms          rms(c)
DAV:   1    -0.345111686305E+01   -0.34511E+01   -0.24117E+02    80   0.120E+02
DAV:   2    -0.743363059896E+01   -0.39825E+01   -0.39863E+01    80   0.374E+01
DAV:   3    -0.751577052862E+01   -0.82140E-01   -0.81684E-01   145   0.777E+00
DAV:   4    -0.751579593717E+01   -0.25409E-04   -0.25407E-04    95   0.123E-01
DAV:   5    -0.751579605520E+01   -0.11803E-06   -0.11834E-06   120   0.802E-03    0.485E+00
DAV:   6    -0.700455942563E+01    0.51124E+00   -0.25911E-01    80   0.238E+00    0.264E+00
DAV:   7    -0.672660107636E+01    0.27796E+00   -0.61562E-01   120   0.373E+00    0.327E-01
DAV:   8    -0.673085219283E+01   -0.42511E-02   -0.76027E-03   110   0.352E-01    0.313E-01
DAV:   9    -0.672608617489E+01    0.47660E-02   -0.66378E-03   120   0.375E-01    0.567E-02
DAV:  10    -0.672774935515E+01   -0.16632E-02   -0.11197E-03    90   0.138E-01    0.155E-02
DAV:  11    -0.672839429168E+01   -0.64494E-03   -0.10318E-04   120   0.445E-02    0.240E-02
DAV:  12    -0.673014985870E+01   -0.17556E-02   -0.48341E-04   110   0.103E-01    0.101E-02
DAV:  13    -0.673030493733E+01   -0.15508E-03   -0.80373E-06   140   0.136E-02    0.300E-03
DAV:  14    -0.673049800409E+01   -0.19307E-03   -0.22822E-05   120   0.202E-02    0.501E-03
DAV:  15    -0.673051268153E+01   -0.14677E-04   -0.74236E-07   100   0.397E-03    0.168E-03
DAV:  16    -0.673055350114E+01   -0.40820E-04   -0.13826E-06   100   0.519E-03    0.101E-03
DAV:  17    -0.673055971381E+01   -0.62127E-05   -0.86516E-08   110   0.171E-03    0.670E-04
DAV:  18    -0.673056793524E+01   -0.82214E-05   -0.13255E-07   100   0.164E-03    0.181E-04
DAV:  19    -0.673056983269E+01   -0.18974E-05   -0.36638E-08   100   0.952E-04    0.177E-04
DAV:  20    -0.673057121238E+01   -0.13797E-05   -0.76906E-09   110   0.483E-04    0.837E-05
DAV:  21    -0.673057217752E+01   -0.96514E-06   -0.11851E-08   110   0.580E-04
   1 F= -.67305722E+01 E0= -.67325048E+01  d E =-.673057E+01  mag=    -0.0000
 curvature:   0.00 expect dE= 0.000E+00 dE for cont linesearch  0.000E+00
 trial: gam= 0.00000 g(F)=  0.272E+00 g(S)=  0.000E+00 ort = 0.000E+00 (trialstep = 0.100E+01)
 search vector abs. value=  0.272E+00
 bond charge predicted
       N       E                     dE             d eps       ncg     rms          rms(c)
DAV:   1    -0.660079487679E+01    0.12978E+00   -0.75469E+00    80   0.208E+01    0.128E+00
DAV:   2    -0.657797342516E+01    0.22821E-01   -0.49219E-02   130   0.151E+00    0.671E-01
DAV:   3    -0.657023506511E+01    0.77384E-02   -0.22056E-02   120   0.621E-01    0.754E-02
DAV:   4    -0.657055322582E+01   -0.31816E-03   -0.23152E-04    90   0.821E-02    0.288E-02
DAV:   5    -0.657073023392E+01   -0.17701E-03   -0.77054E-05   120   0.443E-02    0.454E-03
DAV:   6    -0.657078861426E+01   -0.58380E-04   -0.12914E-05   100   0.156E-02    0.296E-03
DAV:   7    -0.657080762498E+01   -0.19011E-04   -0.76737E-06   110   0.110E-02    0.207E-03
DAV:   8    -0.657083107330E+01   -0.23448E-04   -0.15658E-06    80   0.836E-03    0.741E-04
DAV:   9    -0.657083831534E+01   -0.72420E-05   -0.60639E-07   100   0.582E-03    0.659E-04
DAV:  10    -0.657084583625E+01   -0.75209E-05   -0.21760E-07    80   0.242E-03    0.200E-04
DAV:  11    -0.657084892003E+01   -0.30838E-05   -0.10169E-07    80   0.189E-03    0.202E-04
DAV:  12    -0.657085032207E+01   -0.14020E-05   -0.12562E-08   100   0.653E-04    0.116E-04
DAV:  13    -0.657085214392E+01   -0.18218E-05   -0.19661E-08    90   0.681E-04    0.482E-05
DAV:  14    -0.657085241627E+01   -0.27235E-06   -0.20435E-09   120   0.247E-04
   2 F= -.65708524E+01 E0= -.65727851E+01  d E =0.159720E+00  mag=    -0.0000
 trial-energy change:    0.159720  1 .order    0.096534   -0.271564    0.464632
 step:   0.2679(harm=  0.3689)  dis= 0.02168  next Energy=    -6.765731 (dE=-0.352E-01)
 bond charge predicted
       N       E                     dE             d eps       ncg     rms          rms(c)
DAV:   1    -0.677871801923E+01   -0.20787E+00   -0.38166E+00    80   0.142E+01    0.850E-01
DAV:   2    -0.676895946776E+01    0.97586E-02   -0.22823E-02   130   0.118E+00    0.503E-01
DAV:   3    -0.676403584999E+01    0.49236E-02   -0.18006E-02   140   0.576E-01    0.638E-02
DAV:   4    -0.676406463598E+01   -0.28786E-04   -0.18061E-04    90   0.554E-02    0.211E-02
DAV:   5    -0.676418408865E+01   -0.11945E-03   -0.27658E-05   100   0.330E-02    0.320E-03
DAV:   6    -0.676425362676E+01   -0.69538E-04   -0.36591E-06   120   0.833E-03    0.193E-03
DAV:   7    -0.676430099630E+01   -0.47370E-04   -0.58349E-06   100   0.949E-03    0.104E-03
DAV:   8    -0.676432282277E+01   -0.21826E-04   -0.53060E-07   120   0.322E-03    0.892E-04
DAV:   9    -0.676436460812E+01   -0.41785E-04   -0.28482E-06    80   0.703E-03    0.469E-04
DAV:  10    -0.676437068926E+01   -0.60811E-05   -0.91647E-08   130   0.133E-03    0.349E-04
DAV:  11    -0.676438284829E+01   -0.12159E-04   -0.50189E-07   100   0.287E-03    0.169E-04
DAV:  12    -0.676438462022E+01   -0.17719E-05   -0.23410E-08   110   0.668E-04    0.157E-04
DAV:  13    -0.676438584380E+01   -0.12236E-05   -0.74213E-09   100   0.421E-04    0.539E-05
DAV:  14    -0.676438657986E+01   -0.73606E-06   -0.77886E-09   100   0.424E-04
   3 F= -.67643866E+01 E0= -.67663192E+01  d E =-.338144E-01  mag=     0.0000
 curvature:  -0.18 expect dE=-0.236E-04 dE for cont linesearch -0.236E-04
 ZBRENT: interpolating
 opt :   0.2621  next Energy=    -6.764404 (dE=-0.338E-01)
 bond charge predicted
       N       E                     dE             d eps       ncg     rms          rms(c)
DAV:   1    -0.676440741224E+01   -0.21568E-04   -0.25962E-04   130   0.121E-01    0.798E-03
DAV:   2    -0.676440649835E+01    0.91389E-06   -0.74120E-07   100   0.387E-03
   4 F= -.67644065E+01 E0= -.67663391E+01  d E =-.338343E-01  mag=     0.0000
 curvature:  -0.13 expect dE=-0.492E-06 dE for cont linesearch -0.492E-06
 trial: gam= 0.00000 g(F)=  0.375E-05 g(S)=  0.000E+00 ort =-0.101E-02 (trialstep = 0.852E+00)
 search vector abs. value=  0.375E-05
 reached required accuracy - stopping structural energy minimisation
