<?xml version="1.0" encoding="ISO-8859-1"?>
<modeling>
 <generator>
  <i name="program" type="string">vasp </i>
  <i name="version" type="string">5.3.3  </i>
  <i name="subversion" type="string">18Dez12 (build Aug 26 2015 16:06:49) complex                          parallel </i>
  <i name="platform" type="string">LinuxIFC </i>
  <i name="date" type="string">2020 05 15 </i>
  <i name="time" type="string">19:35:07 </i>
 </generator>
 <incar>
  <i type="string" name="SYSTEM"> Beta12Borophene !The name of the system</i>
  <i type="string" name="PREC">normal   !normal or accurate</i>
  <i type="string" name="ALGO"> Normal   !def=Normal. Sets IALGO and LD</i>
  <i type="int" name="ISPIN">     2</i>
  <i type="int" name="NELM">    60</i>
  <i type="int" name="IBRION">     2</i>
  <i name="EDIFF">      0.00000100</i>
  <i name="EDIFFG">     -0.01000000</i>
  <i type="int" name="NSW">  1000</i>
  <i type="int" name="ISIF">     2</i>
  <i name="ENCUT">    500.00000000</i>
  <i name="POTIM">      0.50000000</i>
  <i name="NUPDOWN">      0.00000000</i>
  <i type="string" name="LREAL"> Auto   !values=.FALSE. or Auto  (def=.F</i>
  <i type="int" name="ISMEAR">     1</i>
  <i name="SIGMA">      0.10000000</i>
  <i type="logical" name="LWAVE"> F  </i>
  <i type="logical" name="LCHARG"> F  </i>
  <i type="logical" name="LVTOT"> F  </i>
  <i type="logical" name="LELF"> F  </i>
  <i type="int" name="NELM">    60</i>
  <i type="string" name="GGA"> PE   !GGA flavor: PE=PBE, RP=RPBE, RE=r</i>
  <i type="logical" name="LDIPOL"> T  </i>
  <i type="int" name="IDIPOL">     3</i>
 </incar>
 <kpoints>
  <generation param="Monkhorst-Pack">
   <v type="int" name="divisions">       3        3        2 </v>
   <v name="usershift">      0.00000000       0.00000000       0.00000000 </v>
   <v name="genvec1">      0.33333333       0.00000000       0.00000000 </v>
   <v name="genvec2">      0.00000000       0.33333333       0.00000000 </v>
   <v name="genvec3">      0.00000000       0.00000000       0.50000000 </v>
   <v name="shift">      0.00000000       0.00000000       0.50000000 </v>
  </generation>
  <varray name="kpointlist" >
   <v>       0.00000000       0.00000000       0.25000000 </v>
   <v>       0.33333333       0.00000000       0.25000000 </v>
   <v>       0.00000000       0.33333333       0.25000000 </v>
   <v>       0.33333333       0.33333333       0.25000000 </v>
  </varray>
  <varray name="weights" >
   <v>       0.11111111 </v>
   <v>       0.22222222 </v>
   <v>       0.22222222 </v>
   <v>       0.44444444 </v>
  </varray>
 </kpoints>
 <parameters>
  <separator name="general" >
   <i type="string" name="SYSTEM">Beta12Borophene !The name of the system</i>
   <i type="logical" name="LCOMPAT"> F  </i>
  </separator>
  <separator name="electronic" >
   <i type="string" name="PREC">normal</i>
   <i name="ENMAX">    500.00000000</i>
   <i name="ENAUG">    400.00000000</i>
   <i name="EDIFF">      0.00000100</i>
   <i type="int" name="IALGO">    38</i>
   <i type="int" name="IWAVPR">    11</i>
   <i type="int" name="NBANDS">     5</i>
   <i name="NELECT">      2.00000000</i>
   <i type="int" name="TURBO">     0</i>
   <i type="int" name="IRESTART">     0</i>
   <i type="int" name="NREBOOT">     0</i>
   <i type="int" name="NMIN">     0</i>
   <i name="EREF">      0.00000000</i>
   <separator name="electronic smearing" >
    <i type="int" name="ISMEAR">     1</i>
    <i name="SIGMA">      0.10000000</i>
    <i name="KSPACING">      0.50000000</i>
    <i type="logical" name="KGAMMA"> T  </i>
   </separator>
   <separator name="electronic projectors" >
    <i type="logical" name="LREAL"> T  </i>
    <v name="ROPT">     -0.00050000</v>
    <i type="int" name="LMAXPAW">  -100</i>
    <i type="int" name="LMAXMIX">     2</i>
    <i type="logical" name="NLSPLINE"> F  </i>
   </separator>
   <separator name="electronic startup" >
    <i type="int" name="ISTART">     0</i>
    <i type="int" name="ICHARG">     2</i>
    <i type="int" name="INIWAV">     1</i>
   </separator>
   <separator name="electronic spin" >
    <i type="int" name="ISPIN">     2</i>
    <i type="logical" name="LNONCOLLINEAR"> F  </i>
    <v name="MAGMOM">      0.00000000      0.00000000</v>
    <i name="NUPDOWN">      0.00000000</i>
    <i type="logical" name="LSORBIT"> F  </i>
    <v name="SAXIS">      0.00000000      0.00000000      1.00000000</v>
    <i type="logical" name="LSPIRAL"> F  </i>
    <v name="QSPIRAL">      0.00000000      0.00000000      0.00000000</v>
    <i type="logical" name="LZEROZ"> F  </i>
   </separator>
   <separator name="electronic exchange-correlation" >
    <i type="logical" name="LASPH"> F  </i>
    <i type="logical" name="LMETAGGA"> F  </i>
   </separator>
   <separator name="electronic convergence" >
    <i type="int" name="NELM">    60</i>
    <i type="int" name="NELMDL">    -5</i>
    <i type="int" name="NELMIN">     2</i>
    <i name="ENINI">    500.00000000</i>
    <separator name="electronic convergence detail" >
     <i type="logical" name="LDIAG"> T  </i>
     <i type="logical" name="LSUBROT"> T  </i>
     <i name="WEIMIN">      0.00100000</i>
     <i name="EBREAK">      0.00000005</i>
     <i name="DEPER">      0.30000000</i>
     <i type="int" name="NRMM">     4</i>
     <i name="TIME">      0.40000000</i>
    </separator>
   </separator>
   <separator name="electronic mixer" >
    <i name="AMIX">      0.40000000</i>
    <i name="BMIX">      1.00000000</i>
    <i name="AMIN">      0.10000000</i>
    <i name="AMIX_MAG">      1.60000000</i>
    <i name="BMIX_MAG">      1.00000000</i>
    <separator name="electronic mixer details" >
     <i type="int" name="IMIX">     4</i>
     <i type="int" name="MAXMIX">   -45</i>
     <i name="WC">    100.00000000</i>
     <i type="int" name="INIMIX">     1</i>
     <i type="int" name="MIXPRE">     1</i>
     <i type="int" name="MREMOVE">     5</i>
    </separator>
   </separator>
   <separator name="electronic dipolcorrection" >
    <i type="logical" name="LDIPOL"> T  </i>
    <i type="logical" name="LMONO"> F  </i>
    <i type="int" name="IDIPOL">     3</i>
    <i name="EPSILON">      1.00000000</i>
    <v name="DIPOL">   -100.00000000   -100.00000000   -100.00000000</v>
    <i name="EFIELD">      0.00000000</i>
   </separator>
  </separator>
  <separator name="grids" >
   <i type="int" name="NGX">    56</i>
   <i type="int" name="NGY">    64</i>
   <i type="int" name="NGZ">    84</i>
   <i type="int" name="NGXF">   112</i>
   <i type="int" name="NGYF">   128</i>
   <i type="int" name="NGZF">   168</i>
   <i type="logical" name="ADDGRID"> F  </i>
  </separator>
  <separator name="ionic" >
   <i type="int" name="NSW">  1000</i>
   <i type="int" name="IBRION">     2</i>
   <i type="int" name="ISIF">     2</i>
   <i name="PSTRESS">      0.00000000</i>
   <i name="EDIFFG">     -0.01000000</i>
   <i type="int" name="NFREE">     1</i>
   <i name="POTIM">      0.50000000</i>
   <i name="SMASS">     -3.00000000</i>
   <i name="SCALEE">      1.00000000</i>
  </separator>
  <separator name="ionic md" >
   <i name="TEBEG">      0.00010000</i>
   <i name="TEEND">      0.00010000</i>
   <i type="int" name="NBLOCK">     1</i>
   <i type="int" name="KBLOCK">  1000</i>
   <i type="int" name="NPACO">   256</i>
   <i name="APACO">     16.00000000</i>
  </separator>
  <separator name="symmetry" >
   <i type="int" name="ISYM">     2</i>
   <i name="SYMPREC">      0.00001000</i>
  </separator>
  <separator name="dos" >
   <i type="logical" name="LORBIT"> F  </i>
   <v name="RWIGS">     -1.00000000</v>
   <i type="int" name="NEDOS">   301</i>
   <i name="EMIN">     10.00000000</i>
   <i name="EMAX">    -10.00000000</i>
   <i name="EFERMI">      0.00000000</i>
  </separator>
  <separator name="writing" >
   <i type="int" name="NWRITE">     2</i>
   <i type="logical" name="LWAVE"> F  </i>
   <i type="logical" name="LCHARG"> F  </i>
   <i type="logical" name="LPARD"> F  </i>
   <i type="logical" name="LVTOT"> F  </i>
   <i type="logical" name="LVHAR"> F  </i>
   <i type="logical" name="LELF"> F  </i>
   <i type="logical" name="LOPTICS"> F  </i>
   <v name="STM">      0.00000000      0.00000000      0.00000000      0.00000000      0.00000000      0.00000000      0.00000000</v>
  </separator>
  <separator name="performance" >
   <i type="int" name="NPAR">     1</i>
   <i type="int" name="NSIM">     4</i>
   <i type="int" name="NBLK">    -1</i>
   <i type="logical" name="LPLANE"> T  </i>
   <i type="logical" name="LSCALAPACK"> T  </i>
   <i type="logical" name="LSCAAWARE"> F  </i>
   <i type="logical" name="LSCALU"> F  </i>
   <i type="logical" name="LASYNC"> F  </i>
   <i type="logical" name="LORBITALREAL"> F  </i>
  </separator>
  <separator name="miscellaneous" >
   <i type="int" name="IDIOT">     3</i>
   <i type="logical" name="LMUSIC"> F  </i>
   <v name="POMASS">      1.00000000</v>
   <v name="DARWINR">      0.00000000</v>
   <v name="DARWINV">      1.00000000</v>
   <i type="logical" name="LCORR"> T  </i>
  </separator>
  <i type="logical" name="GGA_COMPAT"> T  </i>
  <i type="logical" name="LBERRY"> F  </i>
  <i type="int" name="ICORELEVEL">     0</i>
  <i type="logical" name="LDAU"> F  </i>
  <i type="int" name="I_CONSTRAINED_M">     0</i>
  <separator name="electronic exchange-correlation" >
   <i type="string" name="GGA">PE</i>
   <i type="int" name="VOSKOWN">     0</i>
   <i type="logical" name="LHFCALC"> F  </i>
   <i type="string" name="PRECFOCK"></i>
   <i type="logical" name="LSYMGRAD"> F  </i>
   <i type="logical" name="LHFONE"> F  </i>
   <i type="logical" name="LRHFCALC"> F  </i>
   <i type="logical" name="LTHOMAS"> F  </i>
   <i type="logical" name="LMODELHF"> F  </i>
   <i name="ENCUT4O">     -1.00000000</i>
   <i type="int" name="EXXOEP">     0</i>
   <i type="int" name="FOURORBIT">     0</i>
   <i name="AEXX">      0.00000000</i>
   <i name="HFALPHA">      0.00000000</i>
   <i name="MCALPHA">      0.00000000</i>
   <i name="ALDAX">      1.00000000</i>
   <i name="AGGAX">      1.00000000</i>
   <i name="ALDAC">      1.00000000</i>
   <i name="AGGAC">      1.00000000</i>
   <i type="int" name="NKREDX">     1</i>
   <i type="int" name="NKREDY">     1</i>
   <i type="int" name="NKREDZ">     1</i>
   <i type="logical" name="SHIFTRED"> F  </i>
   <i type="logical" name="ODDONLY"> F  </i>
   <i type="logical" name="EVENONLY"> F  </i>
   <i type="int" name="LMAXFOCK">     0</i>
   <i type="int" name="NMAXFOCKAE">     0</i>
   <i type="logical" name="LFOCKAEDFT"> F  </i>
   <i name="HFSCREEN">      0.00000000</i>
   <i name="HFSCREENC">      0.00000000</i>
   <i type="int" name="NBANDSGWLOW">     0</i>
  </separator>
  <separator name="vdW DFT" >
   <i type="logical" name="LUSE_VDW"> F  </i>
   <i name="Zab_VDW">     -0.84910000</i>
   <i name="PARAM1">      0.12340000</i>
   <i name="PARAM2">      1.00000000</i>
   <i name="PARAM3">      0.00000000</i>
  </separator>
  <separator name="model GW" >
   <i type="int" name="MODEL_GW">     0</i>
   <i name="MODEL_EPS0">    537.66720000</i>
   <i name="MODEL_ALPHA">      1.00000000</i>
  </separator>
  <separator name="linear response parameters" >
   <i type="logical" name="LEPSILON"> F  </i>
   <i type="logical" name="LRPA"> F  </i>
   <i type="logical" name="LNABLA"> F  </i>
   <i type="logical" name="LVEL"> F  </i>
   <i type="int" name="KINTER">     0</i>
   <i name="CSHIFT">      0.10000000</i>
   <i name="OMEGAMAX">     -1.00000000</i>
   <i name="DEG_THRESHOLD">      0.00200000</i>
  </separator>
  <separator name="orbital magnetization" >
   <i type="logical" name="NUCIND"> F  </i>
   <v name="MAGPOS">      0.00000000      0.00000000      0.00000000</v>
   <i type="logical" name="LNICSALL"> T  </i>
   <i type="logical" name="ORBITALMAG"> F  </i>
   <i type="logical" name="LMAGBLOCH"> F  </i>
   <i type="logical" name="LCHIMAG"> F  </i>
   <i type="logical" name="LGAUGE"> T  </i>
   <i type="int" name="MAGATOM">     0</i>
   <v name="MAGDIPOL">      0.00000000      0.00000000      0.00000000</v>
   <v name="AVECCONST">      0.00000000      0.00000000      0.00000000</v>
  </separator>
  <separator name="response functions" >
   <i type="logical" name="LADDER"> F  </i>
   <i type="logical" name="LFXC"> F  </i>
   <i type="logical" name="LHARTREE"> T  </i>
   <i type="int" name="IBSE">     0</i>
   <i type="logical" name="LTCTE"> F  </i>
   <i type="logical" name="LTETE"> F  </i>
   <i type="logical" name="LTRIPLET"> F  </i>
   <i type="logical" name="LFXCEPS"> F  </i>
   <i type="logical" name="L2ORDER"> F  </i>
   <i type="logical" name="LUSEW"> F  </i>
   <i name="ENCUTGW">     -2.00000000</i>
   <i name="ENCUTGWSOFT">     -2.00000000</i>
   <i name="ENCUTLF">     -1.00000000</i>
   <i type="int" name="LMAXMP2">    -1</i>
   <i name="SCISSOR">      0.00000000</i>
   <i type="int" name="NOMEGA">     0</i>
   <i type="int" name="NOMEGAR">     0</i>
   <i type="int" name="NBANDSGW">    -1</i>
   <i type="int" name="NBANDSO">    -1</i>
   <i type="int" name="NBANDSV">    -1</i>
   <i type="int" name="NELM">    60</i>
   <i type="int" name="DIM">     3</i>
   <i type="int" name="ANTIRES">     0</i>
   <i name="OMEGAMAX">    -30.00000000</i>
   <i name="OMEGATL">   -200.00000000</i>
   <i type="int" name="OMEGAGRID">     0</i>
   <i name="CSHIFT">     -0.10000000</i>
   <i type="logical" name="SELFENERGY"> F  </i>
   <i type="logical" name="LSPECTRAL"> F  </i>
   <i type="logical" name="ODDONLYGW"> F  </i>
   <i type="logical" name="EVENONLYGW"> F  </i>
   <i type="int" name="NKREDLFX">     1</i>
   <i type="int" name="NKREDLFY">     1</i>
   <i type="int" name="NKREDLFZ">     1</i>
   <i type="int" name="MAXMEM">  1800</i>
   <i type="int" name="TELESCOPE">     0</i>
  </separator>
 </parameters>
 <atominfo>
  <atoms>       2 </atoms>
  <types>       1 </types>
  <array name="atoms" >
   <dimension dim="1">ion</dimension>
   <field type="string">element</field>
   <field type="int">atomtype</field>
   <set>
    <rc><c>H </c><c>   1</c></rc>
    <rc><c>H </c><c>   1</c></rc>
   </set>
  </array>
  <array name="atomtypes" >
   <dimension dim="1">type</dimension>
   <field type="int">atomspertype</field>
   <field type="string">element</field>
   <field>mass</field>
   <field>valence</field>
   <field type="string">pseudopotential</field>
   <set>
    <rc><c>   2</c><c>H </c><c>      1.00000000</c><c>      1.00000000</c><c>  PAW_PBE H 15Jun2001                   </c></rc>
   </set>
  </array>
 </atominfo>
 <structure name="initialpos" >
  <crystal>
   <varray name="basis" >
    <v>      10.16000000       0.00000000       0.00000000 </v>
    <v>       0.00000000      11.76000000       0.00000000 </v>
    <v>       0.00000000       0.00000000      15.00000000 </v>
   </varray>
   <i name="volume">   1792.22400000 </i>
   <varray name="rec_basis" >
    <v>       0.09842520       0.00000000       0.00000000 </v>
    <v>       0.00000000       0.08503401       0.00000000 </v>
    <v>       0.00000000       0.00000000       0.06666667 </v>
   </varray>
  </crystal>
  <varray name="positions" >
   <v>       0.00000000       0.00000000       0.00000000 </v>
   <v>       0.00000000       0.00000000       0.04720000 </v>
  </varray>
 </structure>
 <calculation>
  <scstep>
   <time name="dav">    1.09    1.09</time>
   <time name="total">    2.56    2.56</time>
   <dipole>
    <v name="dipole">      0.00000000       0.00000000      -0.00000932 </v>
    <i name="Tr[quadrupol]">      0.52287737 </i>
    <i name="Echarged">      0.00000000 </i>
    <i name="Edipol_quadrupol">      0.00000000 </i>
    <i name="Eion">      0.00000000 </i>
   </dipole>
   <energy>
    <i name="alphaZ">      0.00543821 </i>
    <i name="ewald">     13.88970389 </i>
    <i name="hartreedc">    -22.51931971 </i>
    <i name="XCdc">      4.37802940 </i>
    <i name="pawpsdc">      4.26805487 </i>
    <i name="pawaedc">     -4.28581044 </i>
    <i name="eentropy">      0.00158876 </i>
    <i name="bandstr">    -24.16166161 </i>
    <i name="atom">     24.97285975 </i>
    <i name="e_fr_energy">     -3.45111686 </i>
    <i name="e_wo_entrp">     -3.45270562 </i>
    <i name="e_0_energy">     -3.45164645 </i>
   </energy>
  </scstep>
  <scstep>
   <time name="dav">    1.11    1.11</time>
   <time name="total">    1.11    1.12</time>
   <dipole>
    <v name="dipole">      0.00000000       0.00000000      -0.00000932 </v>
    <i name="Tr[quadrupol]">      0.52287737 </i>
    <i name="Echarged">      0.00000000 </i>
    <i name="Edipol_quadrupol">      0.00000000 </i>
    <i name="Eion">      0.00000000 </i>
   </dipole>
   <energy>
    <i name="e_fr_energy">     -7.43363060 </i>
    <i name="e_wo_entrp">     -7.43988462 </i>
    <i name="e_0_energy">     -7.43571527 </i>
   </energy>
  </scstep>
  <scstep>
   <time name="dav">    1.75    1.75</time>
   <time name="total">    1.75    1.76</time>
   <dipole>
    <v name="dipole">      0.00000000       0.00000000      -0.00000932 </v>
    <i name="Tr[quadrupol]">      0.52287737 </i>
    <i name="Echarged">      0.00000000 </i>
    <i name="Edipol_quadrupol">      0.00000000 </i>
    <i name="Eion">      0.00000000 </i>
   </dipole>
   <energy>
    <i name="e_fr_energy">     -7.51577053 </i>
    <i name="e_wo_entrp">     -7.52156843 </i>
    <i name="e_0_energy">     -7.51770316 </i>
   </energy>
  </scstep>
  <scstep>
   <time name="dav">    1.25    1.25</time>
   <time name="total">    1.25    1.25</time>
   <dipole>
    <v name="dipole">      0.00000000       0.00000000      -0.00000932 </v>
    <i name="Tr[quadrupol]">      0.52287737 </i>
    <i name="Echarged">      0.00000000 </i>
    <i name="Edipol_quadrupol">      0.00000000 </i>
    <i name="Eion">      0.00000000 </i>
   </dipole>
   <energy>
    <i name="e_fr_energy">     -7.51579594 </i>
    <i name="e_wo_entrp">     -7.52159384 </i>
    <i name="e_0_energy">     -7.51772857 </i>
   </energy>
  </scstep>
  <scstep>
   <time name="dav">    1.52    1.52</time>
   <time name="total">    1.72    1.73</time>
   <dipole>
    <v name="dipole">      0.00000000       0.00000000      -0.00000932 </v>
    <i name="Tr[quadrupol]">      0.52287737 </i>
    <i name="Echarged">      0.00000000 </i>
    <i name="Edipol_quadrupol">      0.00000000 </i>
    <i name="Eion">      0.00000000 </i>
   </dipole>
   <energy>
    <i name="e_fr_energy">     -7.51579606 </i>
    <i name="e_wo_entrp">     -7.52159396 </i>
    <i name="e_0_energy">     -7.51772869 </i>
   </energy>
  </scstep>
  <scstep>
   <time name="dav">    1.10    1.10</time>
   <time name="total">    2.76    2.77</time>
   <dipole>
    <v name="dipole">      0.00000000       0.00000000       0.00122396 </v>
    <i name="Tr[quadrupol]">      0.49034135 </i>
    <i name="Echarged">      0.00000000 </i>
    <i name="Edipol_quadrupol">      0.00000000 </i>
    <i name="Eion">      0.00000000 </i>
   </dipole>
   <energy>
    <i name="e_fr_energy">     -7.00455943 </i>
    <i name="e_wo_entrp">     -7.01035733 </i>
    <i name="e_0_energy">     -7.00649206 </i>
   </energy>
  </scstep>
  <scstep>
   <time name="dav">    1.50    1.50</time>
   <time name="total">    3.14    3.15</time>
   <dipole>
    <v name="dipole">      0.00000000       0.00000000       0.00076350 </v>
    <i name="Tr[quadrupol]">      0.42670952 </i>
    <i name="Echarged">      0.00000000 </i>
    <i name="Edipol_quadrupol">      0.00000000 </i>
    <i name="Eion">      0.00000000 </i>
   </dipole>
   <energy>
    <i name="e_fr_energy">     -6.72660108 </i>
    <i name="e_wo_entrp">     -6.73239898 </i>
    <i name="e_0_energy">     -6.72853371 </i>
   </energy>
  </scstep>
  <scstep>
   <time name="dav">    1.40    1.41</time>
   <time name="total">    3.12    3.12</time>
   <dipole>
    <v name="dipole">      0.00000000       0.00000000      -0.00000826 </v>
    <i name="Tr[quadrupol]">      0.37409533 </i>
    <i name="Echarged">      0.00000000 </i>
    <i name="Edipol_quadrupol">      0.00000000 </i>
    <i name="Eion">      0.00000000 </i>
   </dipole>
   <energy>
    <i name="e_fr_energy">     -6.73085219 </i>
    <i name="e_wo_entrp">     -6.73665010 </i>
    <i name="e_0_energy">     -6.73278483 </i>
   </energy>
  </scstep>
  <scstep>
   <time name="dav">    1.50    1.50</time>
   <time name="total">    3.20    3.20</time>
   <dipole>
    <v name="dipole">      0.00000000       0.00000000       0.00015415 </v>
    <i name="Tr[quadrupol]">      0.35106403 </i>
    <i name="Echarged">      0.00000000 </i>
    <i name="Edipol_quadrupol">      0.00000000 </i>
    <i name="Eion">      0.00000000 </i>
   </dipole>
   <energy>
    <i name="e_fr_energy">     -6.72608617 </i>
    <i name="e_wo_entrp">     -6.73188408 </i>
    <i name="e_0_energy">     -6.72801881 </i>
   </energy>
  </scstep>
  <scstep>
   <time name="dav">    1.19    1.19</time>
   <time name="total">    2.87    2.87</time>
   <dipole>
    <v name="dipole">      0.00000000       0.00000000       0.00000823 </v>
    <i name="Tr[quadrupol]">      0.28018219 </i>
    <i name="Echarged">      0.00000000 </i>
    <i name="Edipol_quadrupol">      0.00000000 </i>
    <i name="Eion">      0.00000000 </i>
   </dipole>
   <energy>
    <i name="e_fr_energy">     -6.72774936 </i>
    <i name="e_wo_entrp">     -6.73354726 </i>
    <i name="e_0_energy">     -6.72968199 </i>
   </energy>
  </scstep>
  <scstep>
   <time name="dav">    1.54    1.54</time>
   <time name="total">    3.22    3.23</time>
   <dipole>
    <v name="dipole">      0.00000000       0.00000000       0.00001140 </v>
    <i name="Tr[quadrupol]">      0.25817185 </i>
    <i name="Echarged">      0.00000000 </i>
    <i name="Edipol_quadrupol">      0.00000000 </i>
    <i name="Eion">      0.00000000 </i>
   </dipole>
   <energy>
    <i name="e_fr_energy">     -6.72839429 </i>
    <i name="e_wo_entrp">     -6.73419220 </i>
    <i name="e_0_energy">     -6.73032693 </i>
   </energy>
  </scstep>
  <scstep>
   <time name="dav">    1.40    1.40</time>
   <time name="total">    3.09    3.09</time>
   <dipole>
    <v name="dipole">      0.00000000       0.00000000       0.00235765 </v>
    <i name="Tr[quadrupol]">      0.20535801 </i>
    <i name="Echarged">      0.00000000 </i>
    <i name="Edipol_quadrupol">      0.00000000 </i>
    <i name="Eion">      0.00000000 </i>
   </dipole>
   <energy>
    <i name="e_fr_energy">     -6.73014986 </i>
    <i name="e_wo_entrp">     -6.73594776 </i>
    <i name="e_0_energy">     -6.73208249 </i>
   </energy>
  </scstep>
  <scstep>
   <time name="dav">    1.76    1.76</time>
   <time name="total">    3.45    3.46</time>
   <dipole>
    <v name="dipole">      0.00000000       0.00000000       0.00317678 </v>
    <i name="Tr[quadrupol]">      0.19226821 </i>
    <i name="Echarged">      0.00000000 </i>
    <i name="Edipol_quadrupol">      0.00000000 </i>
    <i name="Eion">      0.00000000 </i>
   </dipole>
   <energy>
    <i name="e_fr_energy">     -6.73030494 </i>
    <i name="e_wo_entrp">     -6.73610284 </i>
    <i name="e_0_energy">     -6.73223757 </i>
   </energy>
  </scstep>
  <scstep>
   <time name="dav">    1.50    1.50</time>
   <time name="total">    3.19    3.19</time>
   <dipole>
    <v name="dipole">      0.00000000       0.00000000       0.00244359 </v>
    <i name="Tr[quadrupol]">      0.17162184 </i>
    <i name="Echarged">      0.00000000 </i>
    <i name="Edipol_quadrupol">      0.00000000 </i>
    <i name="Eion">      0.00000000 </i>
   </dipole>
   <energy>
    <i name="e_fr_energy">     -6.73049800 </i>
    <i name="e_wo_entrp">     -6.73629591 </i>
    <i name="e_0_energy">     -6.73243064 </i>
   </energy>
  </scstep>
  <scstep>
   <time name="dav">    1.31    1.31</time>
   <time name="total">    3.00    3.00</time>
   <dipole>
    <v name="dipole">      0.00000000       0.00000000       0.00220019 </v>
    <i name="Tr[quadrupol]">      0.16829934 </i>
    <i name="Echarged">      0.00000000 </i>
    <i name="Edipol_quadrupol">      0.00000000 </i>
    <i name="Eion">      0.00000000 </i>
   </dipole>
   <energy>
    <i name="e_fr_energy">     -6.73051268 </i>
    <i name="e_wo_entrp">     -6.73631059 </i>
    <i name="e_0_energy">     -6.73244532 </i>
   </energy>
  </scstep>
  <scstep>
   <time name="dav">    1.32    1.32</time>
   <time name="total">    3.04    3.07</time>
   <dipole>
    <v name="dipole">      0.00000000       0.00000000       0.00099731 </v>
    <i name="Tr[quadrupol]">      0.16160539 </i>
    <i name="Echarged">      0.00000000 </i>
    <i name="Edipol_quadrupol">      0.00000000 </i>
    <i name="Eion">      0.00000000 </i>
   </dipole>
   <energy>
    <i name="e_fr_energy">     -6.73055350 </i>
    <i name="e_wo_entrp">     -6.73635141 </i>
    <i name="e_0_energy">     -6.73248614 </i>
   </energy>
  </scstep>
  <scstep>
   <time name="dav">    1.41    1.41</time>
   <time name="total">    3.13    3.13</time>
   <dipole>
    <v name="dipole">      0.00000000       0.00000000       0.00047918 </v>
    <i name="Tr[quadrupol]">      0.15978382 </i>
    <i name="Echarged">      0.00000000 </i>
    <i name="Edipol_quadrupol">      0.00000000 </i>
    <i name="Eion">      0.00000000 </i>
   </dipole>
   <energy>
    <i name="e_fr_energy">     -6.73055971 </i>
    <i name="e_wo_entrp">     -6.73635762 </i>
    <i name="e_0_energy">     -6.73249235 </i>
   </energy>
  </scstep>
  <scstep>
   <time name="dav">    1.31    1.31</time>
   <time name="total">    3.01    3.02</time>
   <dipole>
    <v name="dipole">      0.00000000       0.00000000       0.00010185 </v>
    <i name="Tr[quadrupol]">      0.15840272 </i>
    <i name="Echarged">      0.00000000 </i>
    <i name="Edipol_quadrupol">      0.00000000 </i>
    <i name="Eion">      0.00000000 </i>
   </dipole>
   <energy>
    <i name="e_fr_energy">     -6.73056794 </i>
    <i name="e_wo_entrp">     -6.73636584 </i>
    <i name="e_0_energy">     -6.73250057 </i>
   </energy>
  </scstep>
  <scstep>
   <time name="dav">    1.31    1.31</time>
   <time name="total">    3.02    3.03</time>
   <dipole>
    <v name="dipole">      0.00000000       0.00000000      -0.00002538 </v>
    <i name="Tr[quadrupol]">      0.15778809 </i>
    <i name="Echarged">      0.00000000 </i>
    <i name="Edipol_quadrupol">      0.00000000 </i>
    <i name="Eion">      0.00000000 </i>
   </dipole>
   <energy>
    <i name="e_fr_energy">     -6.73056983 </i>
    <i name="e_wo_entrp">     -6.73636774 </i>
    <i name="e_0_energy">     -6.73250247 </i>
   </energy>
  </scstep>
  <scstep>
   <time name="dav">    1.41    1.41</time>
   <time name="total">    3.14    3.14</time>
   <dipole>
    <v name="dipole">      0.00000000       0.00000000      -0.00003180 </v>
    <i name="Tr[quadrupol]">      0.15752726 </i>
    <i name="Echarged">      0.00000000 </i>
    <i name="Edipol_quadrupol">      0.00000000 </i>
    <i name="Eion">      0.00000000 </i>
   </dipole>
   <energy>
    <i name="e_fr_energy">     -6.73057121 </i>
    <i name="e_wo_entrp">     -6.73636912 </i>
    <i name="e_0_energy">     -6.73250385 </i>
   </energy>
  </scstep>
  <scstep>
   <time name="dav">    1.39    1.39</time>
   <time name="total">    2.86    2.87</time>
   <dipole>
    <v name="dipole">      0.00000000       0.00000000      -0.00001041 </v>
    <i name="Tr[quadrupol]">      0.15736548 </i>
    <i name="Echarged">      0.00000000 </i>
    <i name="Edipol_quadrupol">      0.00000000 </i>
    <i name="Eion">      0.00000000 </i>
   </dipole>
   <energy>
    <i name="alphaZ">      0.00543604 </i>
    <i name="ewald">     13.88970389 </i>
    <i name="hartreedc">    -29.89985057 </i>
    <i name="XCdc">      5.40567444 </i>
    <i name="pawpsdc">     26.45874871 </i>
    <i name="pawaedc">    -26.51451049 </i>
    <i name="eentropy">      0.00579791 </i>
    <i name="bandstr">    -21.05443187 </i>
    <i name="atom">     24.97285975 </i>
    <i name="e_fr_energy">     -6.73057218 </i>
    <i name="e_wo_entrp">     -6.73637008 </i>
    <i name="e_0_energy">     -6.73250481 </i>
   </energy>
  </scstep>
  <structure>
   <crystal>
    <varray name="basis" >
     <v>      10.16000000       0.00000000       0.00000000 </v>
     <v>       0.00000000      11.76000000       0.00000000 </v>
     <v>       0.00000000       0.00000000      15.00000000 </v>
    </varray>
    <i name="volume">   1792.22400000 </i>
    <varray name="rec_basis" >
     <v>       0.09842520       0.00000000       0.00000000 </v>
     <v>       0.00000000       0.08503401       0.00000000 </v>
     <v>       0.00000000       0.00000000       0.06666667 </v>
    </varray>
   </crystal>
   <varray name="positions" >
    <v>       0.00000000       0.00000000       0.00000000 </v>
    <v>       0.00000000       0.00000000       0.04720000 </v>
   </varray>
  </structure>
  <varray name="forces" >
   <v>       0.00000000       0.00000000      -1.67766520 </v>
   <v>       0.00000000       0.00000000       1.67766520 </v>
  </varray>
  <varray name="stress" >
   <v>      -0.03226532       0.00000000       0.00000000 </v>
   <v>       0.00000000      -0.03183482       0.00000000 </v>
   <v>       0.00000000       0.00000000       1.01830432 </v>
  </varray>
  <energy>
   <i name="e_fr_energy">     -6.73057218 </i>
   <i name="e_wo_entrp">     -6.73250481 </i>
   <i name="e_0_energy">      0.00579791 </i>
  </energy>
  <time name="totalsc">   61.26   61.44</time>
 </calculation>
 <calculation>
  <scstep>
   <time name="dav">    1.10    1.10</time>
   <time name="total">    2.75    2.76</time>
   <dipole>
    <v name="dipole">      0.00000000       0.00000000      -0.00000352 </v>
    <i name="Tr[quadrupol]">      0.15733740 </i>
    <i name="Echarged">      0.00000000 </i>
    <i name="Edipol_quadrupol">      0.00000000 </i>
    <i name="Eion">      0.00000000 </i>
   </dipole>
   <energy>
    <i name="alphaZ">      0.00543693 </i>
    <i name="ewald">     10.10517132 </i>
    <i name="hartreedc">    -28.48927034 </i>
    <i name="XCdc">      5.23449977 </i>
    <i name="pawpsdc">     26.45867296 </i>
    <i name="pawaedc">    -26.51443474 </i>
    <i name="eentropy">      0.00579791 </i>
    <i name="bandstr">    -18.37952845 </i>
    <i name="atom">     24.97285975 </i>
    <i name="e_fr_energy">     -6.60079488 </i>
    <i name="e_wo_entrp">     -6.60659278 </i>
    <i name="e_0_energy">     -6.60272751 </i>
   </energy>
  </scstep>
  <scstep>
   <time name="dav">    1.58    1.58</time>
   <time name="total">    3.22    3.23</time>
   <dipole>
    <v name="dipole">      0.00000000       0.00000000      -0.00001981 </v>
    <i name="Tr[quadrupol]">      0.15945491 </i>
    <i name="Echarged">      0.00000000 </i>
    <i name="Edipol_quadrupol">      0.00000000 </i>
    <i name="Eion">      0.00000000 </i>
   </dipole>
   <energy>
    <i name="e_fr_energy">     -6.57797343 </i>
    <i name="e_wo_entrp">     -6.58377133 </i>
    <i name="e_0_energy">     -6.57990606 </i>
   </energy>
  </scstep>
  <scstep>
   <time name="dav">    1.52    1.52</time>
   <time name="total">    3.17    3.18</time>
   <dipole>
    <v name="dipole">      0.00000000       0.00000000      -0.00006399 </v>
    <i name="Tr[quadrupol]">      0.16204267 </i>
    <i name="Echarged">      0.00000000 </i>
    <i name="Edipol_quadrupol">      0.00000000 </i>
    <i name="Eion">      0.00000000 </i>
   </dipole>
   <energy>
    <i name="e_fr_energy">     -6.57023507 </i>
    <i name="e_wo_entrp">     -6.57603297 </i>
    <i name="e_0_energy">     -6.57216770 </i>
   </energy>
  </scstep>
  <scstep>
   <time name="dav">    1.19    1.19</time>
   <time name="total">    2.84    2.84</time>
   <dipole>
    <v name="dipole">      0.00000000       0.00000000       0.00002703 </v>
    <i name="Tr[quadrupol]">      0.16205061 </i>
    <i name="Echarged">      0.00000000 </i>
    <i name="Edipol_quadrupol">      0.00000000 </i>
    <i name="Eion">      0.00000000 </i>
   </dipole>
   <energy>
    <i name="e_fr_energy">     -6.57055323 </i>
    <i name="e_wo_entrp">     -6.57635113 </i>
    <i name="e_0_energy">     -6.57248586 </i>
   </energy>
  </scstep>
  <scstep>
   <time name="dav">    1.49    1.50</time>
   <time name="total">    3.14    3.14</time>
   <dipole>
    <v name="dipole">      0.00000000       0.00000000      -0.00000293 </v>
    <i name="Tr[quadrupol]">      0.16176646 </i>
    <i name="Echarged">      0.00000000 </i>
    <i name="Edipol_quadrupol">      0.00000000 </i>
    <i name="Eion">      0.00000000 </i>
   </dipole>
   <energy>
    <i name="e_fr_energy">     -6.57073023 </i>
    <i name="e_wo_entrp">     -6.57652814 </i>
    <i name="e_0_energy">     -6.57266287 </i>
   </energy>
  </scstep>
  <scstep>
   <time name="dav">    1.29    1.30</time>
   <time name="total">    2.95    2.95</time>
   <dipole>
    <v name="dipole">      0.00000000       0.00000000      -0.00001602 </v>
    <i name="Tr[quadrupol]">      0.16163599 </i>
    <i name="Echarged">      0.00000000 </i>
    <i name="Edipol_quadrupol">      0.00000000 </i>
    <i name="Eion">      0.00000000 </i>
   </dipole>
   <energy>
    <i name="e_fr_energy">     -6.57078861 </i>
    <i name="e_wo_entrp">     -6.57658652 </i>
    <i name="e_0_energy">     -6.57272125 </i>
   </energy>
  </scstep>
  <scstep>
   <time name="dav">    1.40    1.40</time>
   <time name="total">    3.05    3.06</time>
   <dipole>
    <v name="dipole">      0.00000000       0.00000000      -0.00000926 </v>
    <i name="Tr[quadrupol]">      0.16150764 </i>
    <i name="Echarged">      0.00000000 </i>
    <i name="Edipol_quadrupol">      0.00000000 </i>
    <i name="Eion">      0.00000000 </i>
   </dipole>
   <energy>
    <i name="e_fr_energy">     -6.57080762 </i>
    <i name="e_wo_entrp">     -6.57660553 </i>
    <i name="e_0_energy">     -6.57274026 </i>
   </energy>
  </scstep>
  <scstep>
   <time name="dav">    1.09    1.09</time>
   <time name="total">    2.75    2.76</time>
   <dipole>
    <v name="dipole">      0.00000000       0.00000000      -0.00000346 </v>
    <i name="Tr[quadrupol]">      0.16129466 </i>
    <i name="Echarged">      0.00000000 </i>
    <i name="Edipol_quadrupol">      0.00000000 </i>
    <i name="Eion">      0.00000000 </i>
   </dipole>
   <energy>
    <i name="e_fr_energy">     -6.57083107 </i>
    <i name="e_wo_entrp">     -6.57662898 </i>
    <i name="e_0_energy">     -6.57276371 </i>
   </energy>
  </scstep>
  <scstep>
   <time name="dav">    1.30    1.30</time>
   <time name="total">    2.97    2.98</time>
   <dipole>
    <v name="dipole">      0.00000000       0.00000000       0.00000056 </v>
    <i name="Tr[quadrupol]">      0.16113393 </i>
    <i name="Echarged">      0.00000000 </i>
    <i name="Edipol_quadrupol">      0.00000000 </i>
    <i name="Eion">      0.00000000 </i>
   </dipole>
   <energy>
    <i name="e_fr_energy">     -6.57083832 </i>
    <i name="e_wo_entrp">     -6.57663622 </i>
    <i name="e_0_energy">     -6.57277095 </i>
   </energy>
  </scstep>
  <scstep>
   <time name="dav">    1.09    1.09</time>
   <time name="total">    2.78    2.78</time>
   <dipole>
    <v name="dipole">      0.00000000       0.00000000       0.00000396 </v>
    <i name="Tr[quadrupol]">      0.16091234 </i>
    <i name="Echarged">      0.00000000 </i>
    <i name="Edipol_quadrupol">      0.00000000 </i>
    <i name="Eion">      0.00000000 </i>
   </dipole>
   <energy>
    <i name="e_fr_energy">     -6.57084584 </i>
    <i name="e_wo_entrp">     -6.57664374 </i>
    <i name="e_0_energy">     -6.57277847 </i>
   </energy>
  </scstep>
  <scstep>
   <time name="dav">    1.09    1.09</time>
   <time name="total">    2.78    2.80</time>
   <dipole>
    <v name="dipole">      0.00000000       0.00000000       0.00003845 </v>
    <i name="Tr[quadrupol]">      0.16072448 </i>
    <i name="Echarged">      0.00000000 </i>
    <i name="Edipol_quadrupol">      0.00000000 </i>
    <i name="Eion">      0.00000000 </i>
   </dipole>
   <energy>
    <i name="e_fr_energy">     -6.57084892 </i>
    <i name="e_wo_entrp">     -6.57664683 </i>
    <i name="e_0_energy">     -6.57278156 </i>
   </energy>
  </scstep>
  <scstep>
   <time name="dav">    1.30    1.30</time>
   <time name="total">    3.00    3.01</time>
   <dipole>
    <v name="dipole">      0.00000000       0.00000000       0.00004865 </v>
    <i name="Tr[quadrupol]">      0.16061794 </i>
    <i name="Echarged">      0.00000000 </i>
    <i name="Edipol_quadrupol">      0.00000000 </i>
    <i name="Eion">      0.00000000 </i>
   </dipole>
   <energy>
    <i name="e_fr_energy">     -6.57085032 </i>
    <i name="e_wo_entrp">     -6.57664823 </i>
    <i name="e_0_energy">     -6.57278296 </i>
   </energy>
  </scstep>
  <scstep>
   <time name="dav">    1.19    1.19</time>
   <time name="total">    2.90    2.91</time>
   <dipole>
    <v name="dipole">      0.00000000       0.00000000       0.00002470 </v>
    <i name="Tr[quadrupol]">      0.16051973 </i>
    <i name="Echarged">      0.00000000 </i>
    <i name="Edipol_quadrupol">      0.00000000 </i>
    <i name="Eion">      0.00000000 </i>
   </dipole>
   <energy>
    <i name="e_fr_energy">     -6.57085214 </i>
    <i name="e_wo_entrp">     -6.57665005 </i>
    <i name="e_0_energy">     -6.57278478 </i>
   </energy>
  </scstep>
  <scstep>
   <time name="dav">    1.51    1.51</time>
   <time name="total">    2.98    2.99</time>
   <dipole>
    <v name="dipole">      0.00000000       0.00000000       0.00001613 </v>
    <i name="Tr[quadrupol]">      0.16049849 </i>
    <i name="Echarged">      0.00000000 </i>
    <i name="Edipol_quadrupol">      0.00000000 </i>
    <i name="Eion">      0.00000000 </i>
   </dipole>
   <energy>
    <i name="alphaZ">      0.00544045 </i>
    <i name="ewald">     10.10517132 </i>
    <i name="hartreedc">    -27.07795286 </i>
    <i name="XCdc">      5.03609672 </i>
    <i name="pawpsdc">     16.97947956 </i>
    <i name="pawaedc">    -17.01648120 </i>
    <i name="eentropy">      0.00579791 </i>
    <i name="bandstr">    -19.58126407 </i>
    <i name="atom">     24.97285975 </i>
    <i name="e_fr_energy">     -6.57085242 </i>
    <i name="e_wo_entrp">     -6.57665032 </i>
    <i name="e_0_energy">     -6.57278505 </i>
   </energy>
  </scstep>
  <structure>
   <crystal>
    <varray name="basis" >
     <v>      10.16000000       0.00000000       0.00000000 </v>
     <v>       0.00000000      11.76000000       0.00000000 </v>
     <v>       0.00000000       0.00000000      15.00000000 </v>
    </varray>
    <i name="volume">   1792.22400000 </i>
    <varray name="rec_basis" >
     <v>       0.09842520       0.00000000       0.00000000 </v>
     <v>       0.00000000       0.08503401       0.00000000 </v>
     <v>       0.00000000       0.00000000       0.06666667 </v>
    </varray>
   </crystal>
   <varray name="positions" >
    <v>       0.00000000       0.00000000      -0.00539567 </v>
    <v>       0.00000000       0.00000000       0.05259567 </v>
   </varray>
  </structure>
  <varray name="forces" >
   <v>       0.00000000       0.00000000       2.87039885 </v>
   <v>       0.00000000       0.00000000      -2.87039885 </v>
  </varray>
  <varray name="stress" >
   <v>      -0.02859823       0.00000000       0.00000000 </v>
   <v>       0.00000000      -0.02844239       0.00000000 </v>
   <v>       0.00000000       0.00000000      -2.25697498 </v>
  </varray>
  <energy>
   <i name="e_fr_energy">     -6.57085242 </i>
   <i name="e_wo_entrp">     -6.57278505 </i>
   <i name="e_0_energy">      0.00579791 </i>
  </energy>
  <time name="totalsc">   44.88   44.99</time>
 </calculation>
 <calculation>
  <scstep>
   <time name="dav">    1.09    1.09</time>
   <time name="total">    2.75    2.75</time>
   <dipole>
    <v name="dipole">      0.00000000       0.00000000       0.00000097 </v>
    <i name="Tr[quadrupol]">      0.16047567 </i>
    <i name="Echarged">      0.00000000 </i>
    <i name="Edipol_quadrupol">      0.00000000 </i>
    <i name="Eion">      0.00000000 </i>
   </dipole>
   <energy>
    <i name="alphaZ">      0.00543725 </i>
    <i name="ewald">     12.71598914 </i>
    <i name="hartreedc">    -28.04865029 </i>
    <i name="XCdc">      5.15410606 </i>
    <i name="pawpsdc">     16.98001073 </i>
    <i name="pawaedc">    -17.01701356 </i>
    <i name="eentropy">      0.00579791 </i>
    <i name="bandstr">    -21.54725501 </i>
    <i name="atom">     24.97285975 </i>
    <i name="e_fr_energy">     -6.77871802 </i>
    <i name="e_wo_entrp">     -6.78451593 </i>
    <i name="e_0_energy">     -6.78065065 </i>
   </energy>
  </scstep>
  <scstep>
   <time name="dav">    1.59    1.59</time>
   <time name="total">    3.25    3.26</time>
   <dipole>
    <v name="dipole">      0.00000000       0.00000000      -0.00000053 </v>
    <i name="Tr[quadrupol]">      0.15922552 </i>
    <i name="Echarged">      0.00000000 </i>
    <i name="Edipol_quadrupol">      0.00000000 </i>
    <i name="Eion">      0.00000000 </i>
   </dipole>
   <energy>
    <i name="e_fr_energy">     -6.76895947 </i>
    <i name="e_wo_entrp">     -6.77475737 </i>
    <i name="e_0_energy">     -6.77089210 </i>
   </energy>
  </scstep>
  <scstep>
   <time name="dav">    1.70    1.70</time>
   <time name="total">    3.41    3.42</time>
   <dipole>
    <v name="dipole">      0.00000000       0.00000000      -0.00004574 </v>
    <i name="Tr[quadrupol]">      0.15725132 </i>
    <i name="Echarged">      0.00000000 </i>
    <i name="Edipol_quadrupol">      0.00000000 </i>
    <i name="Eion">      0.00000000 </i>
   </dipole>
   <energy>
    <i name="e_fr_energy">     -6.76403585 </i>
    <i name="e_wo_entrp">     -6.76983376 </i>
    <i name="e_0_energy">     -6.76596849 </i>
   </energy>
  </scstep>
  <scstep>
   <time name="dav">    1.18    1.18</time>
   <time name="total">    2.85    2.86</time>
   <dipole>
    <v name="dipole">      0.00000000       0.00000000      -0.00003119 </v>
    <i name="Tr[quadrupol]">      0.15748432 </i>
    <i name="Echarged">      0.00000000 </i>
    <i name="Edipol_quadrupol">      0.00000000 </i>
    <i name="Eion">      0.00000000 </i>
   </dipole>
   <energy>
    <i name="e_fr_energy">     -6.76406464 </i>
    <i name="e_wo_entrp">     -6.76986254 </i>
    <i name="e_0_energy">     -6.76599727 </i>
   </energy>
  </scstep>
  <scstep>
   <time name="dav">    1.29    1.29</time>
   <time name="total">    2.96    2.96</time>
   <dipole>
    <v name="dipole">      0.00000000       0.00000000       0.00000026 </v>
    <i name="Tr[quadrupol]">      0.15767599 </i>
    <i name="Echarged">      0.00000000 </i>
    <i name="Edipol_quadrupol">      0.00000000 </i>
    <i name="Eion">      0.00000000 </i>
   </dipole>
   <energy>
    <i name="e_fr_energy">     -6.76418409 </i>
    <i name="e_wo_entrp">     -6.76998199 </i>
    <i name="e_0_energy">     -6.76611672 </i>
   </energy>
  </scstep>
  <scstep>
   <time name="dav">    1.48    1.49</time>
   <time name="total">    3.15    3.16</time>
   <dipole>
    <v name="dipole">      0.00000000       0.00000000       0.00000684 </v>
    <i name="Tr[quadrupol]">      0.15776025 </i>
    <i name="Echarged">      0.00000000 </i>
    <i name="Edipol_quadrupol">      0.00000000 </i>
    <i name="Eion">      0.00000000 </i>
   </dipole>
   <energy>
    <i name="e_fr_energy">     -6.76425363 </i>
    <i name="e_wo_entrp">     -6.77005153 </i>
    <i name="e_0_energy">     -6.76618626 </i>
   </energy>
  </scstep>
  <scstep>
   <time name="dav">    1.30    1.30</time>
   <time name="total">    2.97    2.97</time>
   <dipole>
    <v name="dipole">      0.00000000       0.00000000       0.00000685 </v>
    <i name="Tr[quadrupol]">      0.15788488 </i>
    <i name="Echarged">      0.00000000 </i>
    <i name="Edipol_quadrupol">      0.00000000 </i>
    <i name="Eion">      0.00000000 </i>
   </dipole>
   <energy>
    <i name="e_fr_energy">     -6.76430100 </i>
    <i name="e_wo_entrp">     -6.77009890 </i>
    <i name="e_0_energy">     -6.76623363 </i>
   </energy>
  </scstep>
  <scstep>
   <time name="dav">    1.50    1.50</time>
   <time name="total">    3.18    3.18</time>
   <dipole>
    <v name="dipole">      0.00000000       0.00000000       0.00000600 </v>
    <i name="Tr[quadrupol]">      0.15796061 </i>
    <i name="Echarged">      0.00000000 </i>
    <i name="Edipol_quadrupol">      0.00000000 </i>
    <i name="Eion">      0.00000000 </i>
   </dipole>
   <energy>
    <i name="e_fr_energy">     -6.76432282 </i>
    <i name="e_wo_entrp">     -6.77012073 </i>
    <i name="e_0_energy">     -6.76625546 </i>
   </energy>
  </scstep>
  <scstep>
   <time name="dav">    1.09    1.09</time>
   <time name="total">    2.77    2.78</time>
   <dipole>
    <v name="dipole">      0.00000000       0.00000000       0.00000173 </v>
    <i name="Tr[quadrupol]">      0.15818054 </i>
    <i name="Echarged">      0.00000000 </i>
    <i name="Edipol_quadrupol">      0.00000000 </i>
    <i name="Eion">      0.00000000 </i>
   </dipole>
   <energy>
    <i name="e_fr_energy">     -6.76436461 </i>
    <i name="e_wo_entrp">     -6.77016251 </i>
    <i name="e_0_energy">     -6.76629724 </i>
   </energy>
  </scstep>
  <scstep>
   <time name="dav">    1.60    1.60</time>
   <time name="total">    3.28    3.29</time>
   <dipole>
    <v name="dipole">      0.00000000       0.00000000       0.00000058 </v>
    <i name="Tr[quadrupol]">      0.15825026 </i>
    <i name="Echarged">      0.00000000 </i>
    <i name="Edipol_quadrupol">      0.00000000 </i>
    <i name="Eion">      0.00000000 </i>
   </dipole>
   <energy>
    <i name="e_fr_energy">     -6.76437069 </i>
    <i name="e_wo_entrp">     -6.77016859 </i>
    <i name="e_0_energy">     -6.76630332 </i>
   </energy>
  </scstep>
  <scstep>
   <time name="dav">    1.29    1.29</time>
   <time name="total">    2.97    2.98</time>
   <dipole>
    <v name="dipole">      0.00000000       0.00000000      -0.00000192 </v>
    <i name="Tr[quadrupol]">      0.15845834 </i>
    <i name="Echarged">      0.00000000 </i>
    <i name="Edipol_quadrupol">      0.00000000 </i>
    <i name="Eion">      0.00000000 </i>
   </dipole>
   <energy>
    <i name="e_fr_energy">     -6.76438285 </i>
    <i name="e_wo_entrp">     -6.77018075 </i>
    <i name="e_0_energy">     -6.76631548 </i>
   </energy>
  </scstep>
  <scstep>
   <time name="dav">    1.40    1.40</time>
   <time name="total">    3.12    3.13</time>
   <dipole>
    <v name="dipole">      0.00000000       0.00000000      -0.00000218 </v>
    <i name="Tr[quadrupol]">      0.15852884 </i>
    <i name="Echarged">      0.00000000 </i>
    <i name="Edipol_quadrupol">      0.00000000 </i>
    <i name="Eion">      0.00000000 </i>
   </dipole>
   <energy>
    <i name="e_fr_energy">     -6.76438462 </i>
    <i name="e_wo_entrp">     -6.77018253 </i>
    <i name="e_0_energy">     -6.76631726 </i>
   </energy>
  </scstep>
  <scstep>
   <time name="dav">    1.33    1.34</time>
   <time name="total">    3.03    3.04</time>
   <dipole>
    <v name="dipole">      0.00000000       0.00000000      -0.00000130 </v>
    <i name="Tr[quadrupol]">      0.15860380 </i>
    <i name="Echarged">      0.00000000 </i>
    <i name="Edipol_quadrupol">      0.00000000 </i>
    <i name="Eion">      0.00000000 </i>
   </dipole>
   <energy>
    <i name="e_fr_energy">     -6.76438584 </i>
    <i name="e_wo_entrp">     -6.77018375 </i>
    <i name="e_0_energy">     -6.76631848 </i>
   </energy>
  </scstep>
  <scstep>
   <time name="dav">    1.30    1.30</time>
   <time name="total">    2.78    2.78</time>
   <dipole>
    <v name="dipole">      0.00000000       0.00000000      -0.00000039 </v>
    <i name="Tr[quadrupol]">      0.15867761 </i>
    <i name="Echarged">      0.00000000 </i>
    <i name="Edipol_quadrupol">      0.00000000 </i>
    <i name="Eion">      0.00000000 </i>
   </dipole>
   <energy>
    <i name="alphaZ">      0.00543719 </i>
    <i name="ewald">     12.71598914 </i>
    <i name="hartreedc">    -29.08882064 </i>
    <i name="XCdc">      5.29871183 </i>
    <i name="pawpsdc">     23.43661227 </i>
    <i name="pawaedc">    -23.48588752 </i>
    <i name="eentropy">      0.00579791 </i>
    <i name="bandstr">    -20.62508649 </i>
    <i name="atom">     24.97285975 </i>
    <i name="e_fr_energy">     -6.76438658 </i>
    <i name="e_wo_entrp">     -6.77018449 </i>
    <i name="e_0_energy">     -6.76631922 </i>
   </energy>
  </scstep>
  <structure>
   <crystal>
    <varray name="basis" >
     <v>      10.16000000       0.00000000       0.00000000 </v>
     <v>       0.00000000      11.76000000       0.00000000 </v>
     <v>       0.00000000       0.00000000      15.00000000 </v>
    </varray>
    <i name="volume">   1792.22400000 </i>
    <varray name="rec_basis" >
     <v>       0.09842520       0.00000000       0.00000000 </v>
     <v>       0.00000000       0.08503401       0.00000000 </v>
     <v>       0.00000000       0.00000000       0.06666667 </v>
    </varray>
   </crystal>
   <varray name="positions" >
    <v>       0.00000000       0.00000000      -0.00144539 </v>
    <v>       0.00000000       0.00000000       0.04864539 </v>
   </varray>
  </structure>
  <varray name="forces" >
   <v>       0.00000000       0.00000000       0.03687504 </v>
   <v>       0.00000000       0.00000000      -0.03687504 </v>
  </varray>
  <varray name="stress" >
   <v>      -0.03121282       0.00000000       0.00000000 </v>
   <v>       0.00000000      -0.03096489       0.00000000 </v>
   <v>       0.00000000       0.00000000      -0.06491678 </v>
  </varray>
  <energy>
   <i name="e_fr_energy">     -6.76438658 </i>
   <i name="e_wo_entrp">     -6.76631922 </i>
   <i name="e_0_energy">      0.00579791 </i>
  </energy>
  <time name="totalsc">   46.04   46.14</time>
 </calculation>
 <calculation>
  <scstep>
   <time name="dav">    1.59    1.64</time>
   <time name="total">    3.22    3.27</time>
   <dipole>
    <v name="dipole">      0.00000000       0.00000000      -0.00000008 </v>
    <i name="Tr[quadrupol]">      0.15868917 </i>
    <i name="Echarged">      0.00000000 </i>
    <i name="Edipol_quadrupol">      0.00000000 </i>
    <i name="Eion">      0.00000000 </i>
   </dipole>
   <energy>
    <i name="alphaZ">      0.00543719 </i>
    <i name="ewald">     12.73980515 </i>
    <i name="hartreedc">    -29.09673168 </i>
    <i name="XCdc">      5.29968522 </i>
    <i name="pawpsdc">     23.43661320 </i>
    <i name="pawaedc">    -23.48588870 </i>
    <i name="eentropy">      0.00579791 </i>
    <i name="bandstr">    -20.64198545 </i>
    <i name="atom">     24.97285975 </i>
    <i name="e_fr_energy">     -6.76440741 </i>
    <i name="e_wo_entrp">     -6.77020532 </i>
    <i name="e_0_energy">     -6.76634005 </i>
   </energy>
  </scstep>
  <scstep>
   <time name="dav">    1.25    1.25</time>
   <time name="total">    2.77    2.77</time>
   <dipole>
    <v name="dipole">      0.00000000       0.00000000      -0.00000159 </v>
    <i name="Tr[quadrupol]">      0.15867665 </i>
    <i name="Echarged">      0.00000000 </i>
    <i name="Edipol_quadrupol">      0.00000000 </i>
    <i name="Eion">      0.00000000 </i>
   </dipole>
   <energy>
    <i name="alphaZ">      0.00543713 </i>
    <i name="ewald">     12.73980515 </i>
    <i name="hartreedc">    -29.10085233 </i>
    <i name="XCdc">      5.30026865 </i>
    <i name="pawpsdc">     23.46287620 </i>
    <i name="pawaedc">    -23.51220798 </i>
    <i name="eentropy">      0.00579791 </i>
    <i name="bandstr">    -20.63839099 </i>
    <i name="atom">     24.97285975 </i>
    <i name="e_fr_energy">     -6.76440650 </i>
    <i name="e_wo_entrp">     -6.77020440 </i>
    <i name="e_0_energy">     -6.76633913 </i>
   </energy>
  </scstep>
  <structure>
   <crystal>
    <varray name="basis" >
     <v>      10.16000000       0.00000000       0.00000000 </v>
     <v>       0.00000000      11.76000000       0.00000000 </v>
     <v>       0.00000000       0.00000000      15.00000000 </v>
    </varray>
    <i name="volume">   1792.22400000 </i>
    <varray name="rec_basis" >
     <v>       0.09842520       0.00000000       0.00000000 </v>
     <v>       0.00000000       0.08503401       0.00000000 </v>
     <v>       0.00000000       0.00000000       0.06666667 </v>
    </varray>
   </crystal>
   <varray name="positions" >
    <v>       0.00000000       0.00000000      -0.00141430 </v>
    <v>       0.00000000       0.00000000       0.04861430 </v>
   </varray>
  </structure>
  <varray name="forces" >
   <v>       0.00000000       0.00000000       0.00623490 </v>
   <v>       0.00000000       0.00000000      -0.00623490 </v>
  </varray>
  <varray name="stress" >
   <v>      -0.02882786       0.00000000       0.00000000 </v>
   <v>       0.00000000      -0.02857821       0.00000000 </v>
   <v>       0.00000000       0.00000000      -0.04246803 </v>
  </varray>
  <energy>
   <i name="e_fr_energy">     -6.76440650 </i>
   <i name="e_wo_entrp">     -6.76633913 </i>
   <i name="e_0_energy">      0.00579791 </i>
  </energy>
  <time name="totalsc">    9.37    9.44</time>
  <eigenvalues>
   <array>
    <dimension dim="1">band</dimension>
    <dimension dim="2">kpoint</dimension>
    <dimension dim="3">spin</dimension>
    <field>eigene</field>
    <field>occ</field>
    <set>
     <set comment="spin 1">
      <set comment="kpoint 1">
       <r>  -10.3192    1.0000 </r>
       <r>   -0.0846    0.0000 </r>
       <r>    0.1116    0.0000 </r>
       <r>    0.5556    0.0000 </r>
       <r>    0.7592    0.0000 </r>
      </set>
      <set comment="kpoint 2">
       <r>  -10.3192    1.0000 </r>
       <r>    0.0583    0.0000 </r>
       <r>    0.2003    0.0000 </r>
       <r>    0.4962    0.0000 </r>
       <r>    0.6124    0.0000 </r>
      </set>
      <set comment="kpoint 3">
       <r>  -10.3192    1.0000 </r>
       <r>    0.0212    0.0000 </r>
       <r>    0.1710    0.0000 </r>
       <r>    0.3580    0.0000 </r>
       <r>    0.5673    0.0000 </r>
      </set>
      <set comment="kpoint 4">
       <r>  -10.3192    1.0000 </r>
       <r>    0.1562    0.0000 </r>
       <r>    0.2472    0.0000 </r>
       <r>    0.4878    0.0000 </r>
       <r>    0.5973    0.0000 </r>
      </set>
     </set>
     <set comment="spin 2">
      <set comment="kpoint 1">
       <r>  -10.3192    1.0000 </r>
       <r>   -0.0845    0.0000 </r>
       <r>    0.1117    0.0000 </r>
       <r>    0.5556    0.0000 </r>
       <r>    0.7593    0.0000 </r>
      </set>
      <set comment="kpoint 2">
       <r>  -10.3192    1.0000 </r>
       <r>    0.0584    0.0000 </r>
       <r>    0.2003    0.0000 </r>
       <r>    0.4963    0.0000 </r>
       <r>    0.6124    0.0000 </r>
      </set>
      <set comment="kpoint 3">
       <r>  -10.3192    1.0000 </r>
       <r>    0.0213    0.0000 </r>
       <r>    0.1711    0.0000 </r>
       <r>    0.3581    0.0000 </r>
       <r>    0.5674    0.0000 </r>
      </set>
      <set comment="kpoint 4">
       <r>  -10.3192    1.0000 </r>
       <r>    0.1562    0.0000 </r>
       <r>    0.2472    0.0000 </r>
       <r>    0.4879    0.0000 </r>
       <r>    0.5973    0.0000 </r>
      </set>
     </set>
    </set>
   </array>
  </eigenvalues>
  <separator name="orbital magnetization" >
   <v name="MAGDIPOLOUT">      0.00000000      0.00000000      0.00000000</v>
  </separator>
  <dos>
   <i name="efermi">    -10.23500705 </i>
   <total>
    <array>
     <dimension dim="1">gridpoints</dimension>
     <dimension dim="2">spin</dimension>
     <field>energy</field>
     <field>total</field>
     <field>integrated</field>
     <set>
      <set comment="spin 1">
       <r>   -11.3192     0.0000     0.0000 </r>
       <r>   -11.2756     0.0000     0.0000 </r>
       <r>   -11.2320     0.0000     0.0000 </r>
       <r>   -11.1884     0.0000     0.0000 </r>
       <r>   -11.1448    -0.0000    -0.0000 </r>
       <r>   -11.1012    -0.0000    -0.0000 </r>
       <r>   -11.0576    -0.0000    -0.0000 </r>
       <r>   -11.0140    -0.0000    -0.0000 </r>
       <r>   -10.9705    -0.0000    -0.0000 </r>
       <r>   -10.9269    -0.0000    -0.0000 </r>
       <r>   -10.8833    -0.0000    -0.0000 </r>
       <r>   -10.8397    -0.0000    -0.0000 </r>
       <r>   -10.7961    -0.0000    -0.0000 </r>
       <r>   -10.7525    -0.0000    -0.0000 </r>
       <r>   -10.7089    -0.0000    -0.0000 </r>
       <r>   -10.6653    -0.0002    -0.0000 </r>
       <r>   -10.6217    -0.0035    -0.0002 </r>
       <r>   -10.5781    -0.0316    -0.0015 </r>
       <r>   -10.5345    -0.1815    -0.0095 </r>
       <r>   -10.4909    -0.6001    -0.0356 </r>
       <r>   -10.4473    -0.7889    -0.0700 </r>
       <r>   -10.4037     1.5722    -0.0015 </r>
       <r>   -10.3601     8.4614     0.3674 </r>
       <r>   -10.3165    15.5453     1.0451 </r>
       <r>   -10.2729    14.9707     1.6977 </r>
       <r>   -10.2293     7.4445     2.0223 </r>
       <r>   -10.1857     1.0423     2.0677 </r>
       <r>   -10.1422    -0.8383     2.0312 </r>
       <r>   -10.0986    -0.5373     2.0078 </r>
       <r>   -10.0550    -0.1506     2.0012 </r>
       <r>   -10.0114    -0.0247     2.0001 </r>
       <r>    -9.9678    -0.0026     2.0000 </r>
       <r>    -9.9242    -0.0002     2.0000 </r>
       <r>    -9.8806    -0.0000     2.0000 </r>
       <r>    -9.8370    -0.0000     2.0000 </r>
       <r>    -9.7934    -0.0000     2.0000 </r>
       <r>    -9.7498    -0.0000     2.0000 </r>
       <r>    -9.7062    -0.0000     2.0000 </r>
       <r>    -9.6626     0.0000     2.0000 </r>
       <r>    -9.6190     0.0000     2.0000 </r>
       <r>    -9.5754     0.0000     2.0000 </r>
       <r>    -9.5318     0.0000     2.0000 </r>
       <r>    -9.4882     0.0000     2.0000 </r>
       <r>    -9.4446     0.0000     2.0000 </r>
       <r>    -9.4010     0.0000     2.0000 </r>
       <r>    -9.3574     0.0000     2.0000 </r>
       <r>    -9.3138     0.0000     2.0000 </r>
       <r>    -9.2703     0.0000     2.0000 </r>
       <r>    -9.2267     0.0000     2.0000 </r>
       <r>    -9.1831     0.0000     2.0000 </r>
       <r>    -9.1395     0.0000     2.0000 </r>
       <r>    -9.0959     0.0000     2.0000 </r>
       <r>    -9.0523     0.0000     2.0000 </r>
       <r>    -9.0087     0.0000     2.0000 </r>
       <r>    -8.9651     0.0000     2.0000 </r>
       <r>    -8.9215     0.0000     2.0000 </r>
       <r>    -8.8779     0.0000     2.0000 </r>
       <r>    -8.8343     0.0000     2.0000 </r>
       <r>    -8.7907     0.0000     2.0000 </r>
       <r>    -8.7471     0.0000     2.0000 </r>
       <r>    -8.7035     0.0000     2.0000 </r>
       <r>    -8.6599     0.0000     2.0000 </r>
       <r>    -8.6163     0.0000     2.0000 </r>
       <r>    -8.5727     0.0000     2.0000 </r>
       <r>    -8.5291     0.0000     2.0000 </r>
       <r>    -8.4855     0.0000     2.0000 </r>
       <r>    -8.4419     0.0000     2.0000 </r>
       <r>    -8.3984     0.0000     2.0000 </r>
       <r>    -8.3548     0.0000     2.0000 </r>
       <r>    -8.3112     0.0000     2.0000 </r>
       <r>    -8.2676     0.0000     2.0000 </r>
       <r>    -8.2240     0.0000     2.0000 </r>
       <r>    -8.1804     0.0000     2.0000 </r>
       <r>    -8.1368     0.0000     2.0000 </r>
       <r>    -8.0932     0.0000     2.0000 </r>
       <r>    -8.0496     0.0000     2.0000 </r>
       <r>    -8.0060     0.0000     2.0000 </r>
       <r>    -7.9624     0.0000     2.0000 </r>
       <r>    -7.9188     0.0000     2.0000 </r>
       <r>    -7.8752     0.0000     2.0000 </r>
       <r>    -7.8316     0.0000     2.0000 </r>
       <r>    -7.7880     0.0000     2.0000 </r>
       <r>    -7.7444     0.0000     2.0000 </r>
       <r>    -7.7008     0.0000     2.0000 </r>
       <r>    -7.6572     0.0000     2.0000 </r>
       <r>    -7.6136     0.0000     2.0000 </r>
       <r>    -7.5700     0.0000     2.0000 </r>
       <r>    -7.5265     0.0000     2.0000 </r>
       <r>    -7.4829     0.0000     2.0000 </r>
       <r>    -7.4393     0.0000     2.0000 </r>
       <r>    -7.3957     0.0000     2.0000 </r>
       <r>    -7.3521     0.0000     2.0000 </r>
       <r>    -7.3085     0.0000     2.0000 </r>
       <r>    -7.2649     0.0000     2.0000 </r>
       <r>    -7.2213     0.0000     2.0000 </r>
       <r>    -7.1777     0.0000     2.0000 </r>
       <r>    -7.1341     0.0000     2.0000 </r>
       <r>    -7.0905     0.0000     2.0000 </r>
       <r>    -7.0469     0.0000     2.0000 </r>
       <r>    -7.0033     0.0000     2.0000 </r>
       <r>    -6.9597     0.0000     2.0000 </r>
       <r>    -6.9161     0.0000     2.0000 </r>
       <r>    -6.8725     0.0000     2.0000 </r>
       <r>    -6.8289     0.0000     2.0000 </r>
       <r>    -6.7853     0.0000     2.0000 </r>
       <r>    -6.7417     0.0000     2.0000 </r>
       <r>    -6.6982     0.0000     2.0000 </r>
       <r>    -6.6546     0.0000     2.0000 </r>
       <r>    -6.6110     0.0000     2.0000 </r>
       <r>    -6.5674     0.0000     2.0000 </r>
       <r>    -6.5238     0.0000     2.0000 </r>
       <r>    -6.4802     0.0000     2.0000 </r>
       <r>    -6.4366     0.0000     2.0000 </r>
       <r>    -6.3930     0.0000     2.0000 </r>
       <r>    -6.3494     0.0000     2.0000 </r>
       <r>    -6.3058     0.0000     2.0000 </r>
       <r>    -6.2622     0.0000     2.0000 </r>
       <r>    -6.2186     0.0000     2.0000 </r>
       <r>    -6.1750     0.0000     2.0000 </r>
       <r>    -6.1314     0.0000     2.0000 </r>
       <r>    -6.0878     0.0000     2.0000 </r>
       <r>    -6.0442     0.0000     2.0000 </r>
       <r>    -6.0006     0.0000     2.0000 </r>
       <r>    -5.9570     0.0000     2.0000 </r>
       <r>    -5.9134     0.0000     2.0000 </r>
       <r>    -5.8698     0.0000     2.0000 </r>
       <r>    -5.8263     0.0000     2.0000 </r>
       <r>    -5.7827     0.0000     2.0000 </r>
       <r>    -5.7391     0.0000     2.0000 </r>
       <r>    -5.6955     0.0000     2.0000 </r>
       <r>    -5.6519     0.0000     2.0000 </r>
       <r>    -5.6083     0.0000     2.0000 </r>
       <r>    -5.5647     0.0000     2.0000 </r>
       <r>    -5.5211     0.0000     2.0000 </r>
       <r>    -5.4775     0.0000     2.0000 </r>
       <r>    -5.4339     0.0000     2.0000 </r>
       <r>    -5.3903     0.0000     2.0000 </r>
       <r>    -5.3467     0.0000     2.0000 </r>
       <r>    -5.3031     0.0000     2.0000 </r>
       <r>    -5.2595     0.0000     2.0000 </r>
       <r>    -5.2159     0.0000     2.0000 </r>
       <r>    -5.1723     0.0000     2.0000 </r>
       <r>    -5.1287     0.0000     2.0000 </r>
       <r>    -5.0851     0.0000     2.0000 </r>
       <r>    -5.0415     0.0000     2.0000 </r>
       <r>    -4.9979     0.0000     2.0000 </r>
       <r>    -4.9544     0.0000     2.0000 </r>
       <r>    -4.9108     0.0000     2.0000 </r>
       <r>    -4.8672     0.0000     2.0000 </r>
       <r>    -4.8236     0.0000     2.0000 </r>
       <r>    -4.7800     0.0000     2.0000 </r>
       <r>    -4.7364     0.0000     2.0000 </r>
       <r>    -4.6928     0.0000     2.0000 </r>
       <r>    -4.6492     0.0000     2.0000 </r>
       <r>    -4.6056     0.0000     2.0000 </r>
       <r>    -4.5620     0.0000     2.0000 </r>
       <r>    -4.5184     0.0000     2.0000 </r>
       <r>    -4.4748     0.0000     2.0000 </r>
       <r>    -4.4312     0.0000     2.0000 </r>
       <r>    -4.3876     0.0000     2.0000 </r>
       <r>    -4.3440     0.0000     2.0000 </r>
       <r>    -4.3004     0.0000     2.0000 </r>
       <r>    -4.2568     0.0000     2.0000 </r>
       <r>    -4.2132     0.0000     2.0000 </r>
       <r>    -4.1696     0.0000     2.0000 </r>
       <r>    -4.1261     0.0000     2.0000 </r>
       <r>    -4.0825     0.0000     2.0000 </r>
       <r>    -4.0389     0.0000     2.0000 </r>
       <r>    -3.9953     0.0000     2.0000 </r>
       <r>    -3.9517     0.0000     2.0000 </r>
       <r>    -3.9081     0.0000     2.0000 </r>
       <r>    -3.8645     0.0000     2.0000 </r>
       <r>    -3.8209     0.0000     2.0000 </r>
       <r>    -3.7773     0.0000     2.0000 </r>
       <r>    -3.7337     0.0000     2.0000 </r>
       <r>    -3.6901     0.0000     2.0000 </r>
       <r>    -3.6465     0.0000     2.0000 </r>
       <r>    -3.6029     0.0000     2.0000 </r>
       <r>    -3.5593     0.0000     2.0000 </r>
       <r>    -3.5157     0.0000     2.0000 </r>
       <r>    -3.4721     0.0000     2.0000 </r>
       <r>    -3.4285     0.0000     2.0000 </r>
       <r>    -3.3849     0.0000     2.0000 </r>
       <r>    -3.3413     0.0000     2.0000 </r>
       <r>    -3.2977     0.0000     2.0000 </r>
       <r>    -3.2542     0.0000     2.0000 </r>
       <r>    -3.2106     0.0000     2.0000 </r>
       <r>    -3.1670     0.0000     2.0000 </r>
       <r>    -3.1234     0.0000     2.0000 </r>
       <r>    -3.0798     0.0000     2.0000 </r>
       <r>    -3.0362     0.0000     2.0000 </r>
       <r>    -2.9926     0.0000     2.0000 </r>
       <r>    -2.9490     0.0000     2.0000 </r>
       <r>    -2.9054     0.0000     2.0000 </r>
       <r>    -2.8618     0.0000     2.0000 </r>
       <r>    -2.8182     0.0000     2.0000 </r>
       <r>    -2.7746     0.0000     2.0000 </r>
       <r>    -2.7310     0.0000     2.0000 </r>
       <r>    -2.6874     0.0000     2.0000 </r>
       <r>    -2.6438     0.0000     2.0000 </r>
       <r>    -2.6002     0.0000     2.0000 </r>
       <r>    -2.5566     0.0000     2.0000 </r>
       <r>    -2.5130     0.0000     2.0000 </r>
       <r>    -2.4694     0.0000     2.0000 </r>
       <r>    -2.4258     0.0000     2.0000 </r>
       <r>    -2.3823     0.0000     2.0000 </r>
       <r>    -2.3387     0.0000     2.0000 </r>
       <r>    -2.2951     0.0000     2.0000 </r>
       <r>    -2.2515     0.0000     2.0000 </r>
       <r>    -2.2079     0.0000     2.0000 </r>
       <r>    -2.1643     0.0000     2.0000 </r>
       <r>    -2.1207     0.0000     2.0000 </r>
       <r>    -2.0771     0.0000     2.0000 </r>
       <r>    -2.0335     0.0000     2.0000 </r>
       <r>    -1.9899     0.0000     2.0000 </r>
       <r>    -1.9463     0.0000     2.0000 </r>
       <r>    -1.9027     0.0000     2.0000 </r>
       <r>    -1.8591     0.0000     2.0000 </r>
       <r>    -1.8155     0.0000     2.0000 </r>
       <r>    -1.7719     0.0000     2.0000 </r>
       <r>    -1.7283     0.0000     2.0000 </r>
       <r>    -1.6847     0.0000     2.0000 </r>
       <r>    -1.6411     0.0000     2.0000 </r>
       <r>    -1.5975     0.0000     2.0000 </r>
       <r>    -1.5539     0.0000     2.0000 </r>
       <r>    -1.5104     0.0000     2.0000 </r>
       <r>    -1.4668     0.0000     2.0000 </r>
       <r>    -1.4232     0.0000     2.0000 </r>
       <r>    -1.3796     0.0000     2.0000 </r>
       <r>    -1.3360     0.0000     2.0000 </r>
       <r>    -1.2924     0.0000     2.0000 </r>
       <r>    -1.2488     0.0000     2.0000 </r>
       <r>    -1.2052     0.0000     2.0000 </r>
       <r>    -1.1616     0.0000     2.0000 </r>
       <r>    -1.1180     0.0000     2.0000 </r>
       <r>    -1.0744     0.0000     2.0000 </r>
       <r>    -1.0308     0.0000     2.0000 </r>
       <r>    -0.9872     0.0000     2.0000 </r>
       <r>    -0.9436     0.0000     2.0000 </r>
       <r>    -0.9000    -0.0000     2.0000 </r>
       <r>    -0.8564    -0.0000     2.0000 </r>
       <r>    -0.8128    -0.0000     2.0000 </r>
       <r>    -0.7692    -0.0000     2.0000 </r>
       <r>    -0.7256    -0.0000     2.0000 </r>
       <r>    -0.6821    -0.0000     2.0000 </r>
       <r>    -0.6385    -0.0000     2.0000 </r>
       <r>    -0.5949    -0.0000     2.0000 </r>
       <r>    -0.5513    -0.0000     2.0000 </r>
       <r>    -0.5077    -0.0000     2.0000 </r>
       <r>    -0.4641    -0.0000     2.0000 </r>
       <r>    -0.4205    -0.0001     2.0000 </r>
       <r>    -0.3769    -0.0007     2.0000 </r>
       <r>    -0.3333    -0.0056     1.9997 </r>
       <r>    -0.2897    -0.0287     1.9985 </r>
       <r>    -0.2461    -0.0851     1.9948 </r>
       <r>    -0.2025    -0.1015     1.9903 </r>
       <r>    -0.1589     0.1596     1.9973 </r>
       <r>    -0.1153     0.8175     2.0329 </r>
       <r>    -0.0717     1.6781     2.1061 </r>
       <r>    -0.0281     2.9400     2.2343 </r>
       <r>     0.0155     5.0177     2.4530 </r>
       <r>     0.0591     7.3875     2.7751 </r>
       <r>     0.1027    10.0940     3.2151 </r>
       <r>     0.1463    14.0558     3.8279 </r>
       <r>     0.1898    17.3549     4.5845 </r>
       <r>     0.2334    16.4750     5.3027 </r>
       <r>     0.2770    11.6178     5.8092 </r>
       <r>     0.3206     6.4134     6.0888 </r>
       <r>     0.3642     3.5029     6.2415 </r>
       <r>     0.4078     3.3348     6.3868 </r>
       <r>     0.4514     6.3050     6.6617 </r>
       <r>     0.4950    11.6177     7.1682 </r>
       <r>     0.5386    16.3690     7.8818 </r>
       <r>     0.5822    18.2481     8.6773 </r>
       <r>     0.6258    15.5658     9.3559 </r>
       <r>     0.6694     8.9009     9.7439 </r>
       <r>     0.7130     3.0546     9.8771 </r>
       <r>     0.7566     1.1113     9.9255 </r>
       <r>     0.8002     1.0731     9.9723 </r>
       <r>     0.8438     0.6969    10.0027 </r>
       <r>     0.8874     0.1236    10.0081 </r>
       <r>     0.9310    -0.0944    10.0040 </r>
       <r>     0.9746    -0.0672    10.0011 </r>
       <r>     1.0182    -0.0202    10.0002 </r>
       <r>     1.0617    -0.0035    10.0000 </r>
       <r>     1.1053    -0.0004    10.0000 </r>
       <r>     1.1489    -0.0000    10.0000 </r>
       <r>     1.1925    -0.0000    10.0000 </r>
       <r>     1.2361    -0.0000    10.0000 </r>
       <r>     1.2797    -0.0000    10.0000 </r>
       <r>     1.3233    -0.0000    10.0000 </r>
       <r>     1.3669    -0.0000    10.0000 </r>
       <r>     1.4105    -0.0000    10.0000 </r>
       <r>     1.4541     0.0000    10.0000 </r>
       <r>     1.4977     0.0000    10.0000 </r>
       <r>     1.5413     0.0000    10.0000 </r>
       <r>     1.5849     0.0000    10.0000 </r>
       <r>     1.6285     0.0000    10.0000 </r>
       <r>     1.6721     0.0000    10.0000 </r>
       <r>     1.7157     0.0000    10.0000 </r>
       <r>     1.7593     0.0000    10.0000 </r>
      </set>
      <set comment="spin 2">
       <r>   -11.3192     0.0000     0.0000 </r>
       <r>   -11.2756     0.0000     0.0000 </r>
       <r>   -11.2320     0.0000     0.0000 </r>
       <r>   -11.1884     0.0000     0.0000 </r>
       <r>   -11.1448    -0.0000    -0.0000 </r>
       <r>   -11.1012    -0.0000    -0.0000 </r>
       <r>   -11.0576    -0.0000    -0.0000 </r>
       <r>   -11.0140    -0.0000    -0.0000 </r>
       <r>   -10.9705    -0.0000    -0.0000 </r>
       <r>   -10.9269    -0.0000    -0.0000 </r>
       <r>   -10.8833    -0.0000    -0.0000 </r>
       <r>   -10.8397    -0.0000    -0.0000 </r>
       <r>   -10.7961    -0.0000    -0.0000 </r>
       <r>   -10.7525    -0.0000    -0.0000 </r>
       <r>   -10.7089    -0.0000    -0.0000 </r>
       <r>   -10.6653    -0.0002    -0.0000 </r>
       <r>   -10.6217    -0.0035    -0.0002 </r>
       <r>   -10.5781    -0.0316    -0.0015 </r>
       <r>   -10.5345    -0.1815    -0.0095 </r>
       <r>   -10.4909    -0.6001    -0.0356 </r>
       <r>   -10.4473    -0.7889    -0.0700 </r>
       <r>   -10.4037     1.5722    -0.0015 </r>
       <r>   -10.3601     8.4613     0.3674 </r>
       <r>   -10.3165    15.5453     1.0451 </r>
       <r>   -10.2729    14.9707     1.6977 </r>
       <r>   -10.2293     7.4446     2.0223 </r>
       <r>   -10.1857     1.0424     2.0677 </r>
       <r>   -10.1422    -0.8383     2.0312 </r>
       <r>   -10.0986    -0.5373     2.0078 </r>
       <r>   -10.0550    -0.1506     2.0012 </r>
       <r>   -10.0114    -0.0247     2.0001 </r>
       <r>    -9.9678    -0.0026     2.0000 </r>
       <r>    -9.9242    -0.0002     2.0000 </r>
       <r>    -9.8806    -0.0000     2.0000 </r>
       <r>    -9.8370    -0.0000     2.0000 </r>
       <r>    -9.7934    -0.0000     2.0000 </r>
       <r>    -9.7498    -0.0000     2.0000 </r>
       <r>    -9.7062    -0.0000     2.0000 </r>
       <r>    -9.6626     0.0000     2.0000 </r>
       <r>    -9.6190     0.0000     2.0000 </r>
       <r>    -9.5754     0.0000     2.0000 </r>
       <r>    -9.5318     0.0000     2.0000 </r>
       <r>    -9.4882     0.0000     2.0000 </r>
       <r>    -9.4446     0.0000     2.0000 </r>
       <r>    -9.4010     0.0000     2.0000 </r>
       <r>    -9.3574     0.0000     2.0000 </r>
       <r>    -9.3138     0.0000     2.0000 </r>
       <r>    -9.2703     0.0000     2.0000 </r>
       <r>    -9.2267     0.0000     2.0000 </r>
       <r>    -9.1831     0.0000     2.0000 </r>
       <r>    -9.1395     0.0000     2.0000 </r>
       <r>    -9.0959     0.0000     2.0000 </r>
       <r>    -9.0523     0.0000     2.0000 </r>
       <r>    -9.0087     0.0000     2.0000 </r>
       <r>    -8.9651     0.0000     2.0000 </r>
       <r>    -8.9215     0.0000     2.0000 </r>
       <r>    -8.8779     0.0000     2.0000 </r>
       <r>    -8.8343     0.0000     2.0000 </r>
       <r>    -8.7907     0.0000     2.0000 </r>
       <r>    -8.7471     0.0000     2.0000 </r>
       <r>    -8.7035     0.0000     2.0000 </r>
       <r>    -8.6599     0.0000     2.0000 </r>
       <r>    -8.6163     0.0000     2.0000 </r>
       <r>    -8.5727     0.0000     2.0000 </r>
       <r>    -8.5291     0.0000     2.0000 </r>
       <r>    -8.4855     0.0000     2.0000 </r>
       <r>    -8.4419     0.0000     2.0000 </r>
       <r>    -8.3984     0.0000     2.0000 </r>
       <r>    -8.3548     0.0000     2.0000 </r>
       <r>    -8.3112     0.0000     2.0000 </r>
       <r>    -8.2676     0.0000     2.0000 </r>
       <r>    -8.2240     0.0000     2.0000 </r>
       <r>    -8.1804     0.0000     2.0000 </r>
       <r>    -8.1368     0.0000     2.0000 </r>
       <r>    -8.0932     0.0000     2.0000 </r>
       <r>    -8.0496     0.0000     2.0000 </r>
       <r>    -8.0060     0.0000     2.0000 </r>
       <r>    -7.9624     0.0000     2.0000 </r>
       <r>    -7.9188     0.0000     2.0000 </r>
       <r>    -7.8752     0.0000     2.0000 </r>
       <r>    -7.8316     0.0000     2.0000 </r>
       <r>    -7.7880     0.0000     2.0000 </r>
       <r>    -7.7444     0.0000     2.0000 </r>
       <r>    -7.7008     0.0000     2.0000 </r>
       <r>    -7.6572     0.0000     2.0000 </r>
       <r>    -7.6136     0.0000     2.0000 </r>
       <r>    -7.5700     0.0000     2.0000 </r>
       <r>    -7.5265     0.0000     2.0000 </r>
       <r>    -7.4829     0.0000     2.0000 </r>
       <r>    -7.4393     0.0000     2.0000 </r>
       <r>    -7.3957     0.0000     2.0000 </r>
       <r>    -7.3521     0.0000     2.0000 </r>
       <r>    -7.3085     0.0000     2.0000 </r>
       <r>    -7.2649     0.0000     2.0000 </r>
       <r>    -7.2213     0.0000     2.0000 </r>
       <r>    -7.1777     0.0000     2.0000 </r>
       <r>    -7.1341     0.0000     2.0000 </r>
       <r>    -7.0905     0.0000     2.0000 </r>
       <r>    -7.0469     0.0000     2.0000 </r>
       <r>    -7.0033     0.0000     2.0000 </r>
       <r>    -6.9597     0.0000     2.0000 </r>
       <r>    -6.9161     0.0000     2.0000 </r>
       <r>    -6.8725     0.0000     2.0000 </r>
       <r>    -6.8289     0.0000     2.0000 </r>
       <r>    -6.7853     0.0000     2.0000 </r>
       <r>    -6.7417     0.0000     2.0000 </r>
       <r>    -6.6982     0.0000     2.0000 </r>
       <r>    -6.6546     0.0000     2.0000 </r>
       <r>    -6.6110     0.0000     2.0000 </r>
       <r>    -6.5674     0.0000     2.0000 </r>
       <r>    -6.5238     0.0000     2.0000 </r>
       <r>    -6.4802     0.0000     2.0000 </r>
       <r>    -6.4366     0.0000     2.0000 </r>
       <r>    -6.3930     0.0000     2.0000 </r>
       <r>    -6.3494     0.0000     2.0000 </r>
       <r>    -6.3058     0.0000     2.0000 </r>
       <r>    -6.2622     0.0000     2.0000 </r>
       <r>    -6.2186     0.0000     2.0000 </r>
       <r>    -6.1750     0.0000     2.0000 </r>
       <r>    -6.1314     0.0000     2.0000 </r>
       <r>    -6.0878     0.0000     2.0000 </r>
       <r>    -6.0442     0.0000     2.0000 </r>
       <r>    -6.0006     0.0000     2.0000 </r>
       <r>    -5.9570     0.0000     2.0000 </r>
       <r>    -5.9134     0.0000     2.0000 </r>
       <r>    -5.8698     0.0000     2.0000 </r>
       <r>    -5.8263     0.0000     2.0000 </r>
       <r>    -5.7827     0.0000     2.0000 </r>
       <r>    -5.7391     0.0000     2.0000 </r>
       <r>    -5.6955     0.0000     2.0000 </r>
       <r>    -5.6519     0.0000     2.0000 </r>
       <r>    -5.6083     0.0000     2.0000 </r>
       <r>    -5.5647     0.0000     2.0000 </r>
       <r>    -5.5211     0.0000     2.0000 </r>
       <r>    -5.4775     0.0000     2.0000 </r>
       <r>    -5.4339     0.0000     2.0000 </r>
       <r>    -5.3903     0.0000     2.0000 </r>
       <r>    -5.3467     0.0000     2.0000 </r>
       <r>    -5.3031     0.0000     2.0000 </r>
       <r>    -5.2595     0.0000     2.0000 </r>
       <r>    -5.2159     0.0000     2.0000 </r>
       <r>    -5.1723     0.0000     2.0000 </r>
       <r>    -5.1287     0.0000     2.0000 </r>
       <r>    -5.0851     0.0000     2.0000 </r>
       <r>    -5.0415     0.0000     2.0000 </r>
       <r>    -4.9979     0.0000     2.0000 </r>
       <r>    -4.9544     0.0000     2.0000 </r>
       <r>    -4.9108     0.0000     2.0000 </r>
       <r>    -4.8672     0.0000     2.0000 </r>
       <r>    -4.8236     0.0000     2.0000 </r>
       <r>    -4.7800     0.0000     2.0000 </r>
       <r>    -4.7364     0.0000     2.0000 </r>
       <r>    -4.6928     0.0000     2.0000 </r>
       <r>    -4.6492     0.0000     2.0000 </r>
       <r>    -4.6056     0.0000     2.0000 </r>
       <r>    -4.5620     0.0000     2.0000 </r>
       <r>    -4.5184     0.0000     2.0000 </r>
       <r>    -4.4748     0.0000     2.0000 </r>
       <r>    -4.4312     0.0000     2.0000 </r>
       <r>    -4.3876     0.0000     2.0000 </r>
       <r>    -4.3440     0.0000     2.0000 </r>
       <r>    -4.3004     0.0000     2.0000 </r>
       <r>    -4.2568     0.0000     2.0000 </r>
       <r>    -4.2132     0.0000     2.0000 </r>
       <r>    -4.1696     0.0000     2.0000 </r>
       <r>    -4.1261     0.0000     2.0000 </r>
       <r>    -4.0825     0.0000     2.0000 </r>
       <r>    -4.0389     0.0000     2.0000 </r>
       <r>    -3.9953     0.0000     2.0000 </r>
       <r>    -3.9517     0.0000     2.0000 </r>
       <r>    -3.9081     0.0000     2.0000 </r>
       <r>    -3.8645     0.0000     2.0000 </r>
       <r>    -3.8209     0.0000     2.0000 </r>
       <r>    -3.7773     0.0000     2.0000 </r>
       <r>    -3.7337     0.0000     2.0000 </r>
       <r>    -3.6901     0.0000     2.0000 </r>
       <r>    -3.6465     0.0000     2.0000 </r>
       <r>    -3.6029     0.0000     2.0000 </r>
       <r>    -3.5593     0.0000     2.0000 </r>
       <r>    -3.5157     0.0000     2.0000 </r>
       <r>    -3.4721     0.0000     2.0000 </r>
       <r>    -3.4285     0.0000     2.0000 </r>
       <r>    -3.3849     0.0000     2.0000 </r>
       <r>    -3.3413     0.0000     2.0000 </r>
       <r>    -3.2977     0.0000     2.0000 </r>
       <r>    -3.2542     0.0000     2.0000 </r>
       <r>    -3.2106     0.0000     2.0000 </r>
       <r>    -3.1670     0.0000     2.0000 </r>
       <r>    -3.1234     0.0000     2.0000 </r>
       <r>    -3.0798     0.0000     2.0000 </r>
       <r>    -3.0362     0.0000     2.0000 </r>
       <r>    -2.9926     0.0000     2.0000 </r>
       <r>    -2.9490     0.0000     2.0000 </r>
       <r>    -2.9054     0.0000     2.0000 </r>
       <r>    -2.8618     0.0000     2.0000 </r>
       <r>    -2.8182     0.0000     2.0000 </r>
       <r>    -2.7746     0.0000     2.0000 </r>
       <r>    -2.7310     0.0000     2.0000 </r>
       <r>    -2.6874     0.0000     2.0000 </r>
       <r>    -2.6438     0.0000     2.0000 </r>
       <r>    -2.6002     0.0000     2.0000 </r>
       <r>    -2.5566     0.0000     2.0000 </r>
       <r>    -2.5130     0.0000     2.0000 </r>
       <r>    -2.4694     0.0000     2.0000 </r>
       <r>    -2.4258     0.0000     2.0000 </r>
       <r>    -2.3823     0.0000     2.0000 </r>
       <r>    -2.3387     0.0000     2.0000 </r>
       <r>    -2.2951     0.0000     2.0000 </r>
       <r>    -2.2515     0.0000     2.0000 </r>
       <r>    -2.2079     0.0000     2.0000 </r>
       <r>    -2.1643     0.0000     2.0000 </r>
       <r>    -2.1207     0.0000     2.0000 </r>
       <r>    -2.0771     0.0000     2.0000 </r>
       <r>    -2.0335     0.0000     2.0000 </r>
       <r>    -1.9899     0.0000     2.0000 </r>
       <r>    -1.9463     0.0000     2.0000 </r>
       <r>    -1.9027     0.0000     2.0000 </r>
       <r>    -1.8591     0.0000     2.0000 </r>
       <r>    -1.8155     0.0000     2.0000 </r>
       <r>    -1.7719     0.0000     2.0000 </r>
       <r>    -1.7283     0.0000     2.0000 </r>
       <r>    -1.6847     0.0000     2.0000 </r>
       <r>    -1.6411     0.0000     2.0000 </r>
       <r>    -1.5975     0.0000     2.0000 </r>
       <r>    -1.5539     0.0000     2.0000 </r>
       <r>    -1.5104     0.0000     2.0000 </r>
       <r>    -1.4668     0.0000     2.0000 </r>
       <r>    -1.4232     0.0000     2.0000 </r>
       <r>    -1.3796     0.0000     2.0000 </r>
       <r>    -1.3360     0.0000     2.0000 </r>
       <r>    -1.2924     0.0000     2.0000 </r>
       <r>    -1.2488     0.0000     2.0000 </r>
       <r>    -1.2052     0.0000     2.0000 </r>
       <r>    -1.1616     0.0000     2.0000 </r>
       <r>    -1.1180     0.0000     2.0000 </r>
       <r>    -1.0744     0.0000     2.0000 </r>
       <r>    -1.0308     0.0000     2.0000 </r>
       <r>    -0.9872     0.0000     2.0000 </r>
       <r>    -0.9436     0.0000     2.0000 </r>
       <r>    -0.9000    -0.0000     2.0000 </r>
       <r>    -0.8564    -0.0000     2.0000 </r>
       <r>    -0.8128    -0.0000     2.0000 </r>
       <r>    -0.7692    -0.0000     2.0000 </r>
       <r>    -0.7256    -0.0000     2.0000 </r>
       <r>    -0.6821    -0.0000     2.0000 </r>
       <r>    -0.6385    -0.0000     2.0000 </r>
       <r>    -0.5949    -0.0000     2.0000 </r>
       <r>    -0.5513    -0.0000     2.0000 </r>
       <r>    -0.5077    -0.0000     2.0000 </r>
       <r>    -0.4641    -0.0000     2.0000 </r>
       <r>    -0.4205    -0.0001     2.0000 </r>
       <r>    -0.3769    -0.0007     2.0000 </r>
       <r>    -0.3333    -0.0055     1.9997 </r>
       <r>    -0.2897    -0.0286     1.9985 </r>
       <r>    -0.2461    -0.0849     1.9948 </r>
       <r>    -0.2025    -0.1017     1.9903 </r>
       <r>    -0.1589     0.1584     1.9972 </r>
       <r>    -0.1153     0.8156     2.0328 </r>
       <r>    -0.0717     1.6759     2.1059 </r>
       <r>    -0.0281     2.9363     2.2339 </r>
       <r>     0.0155     5.0129     2.4524 </r>
       <r>     0.0591     7.3846     2.7743 </r>
       <r>     0.1027    10.0927     3.2143 </r>
       <r>     0.1463    14.0545     3.8270 </r>
       <r>     0.1898    17.3560     4.5837 </r>
       <r>     0.2334    16.4797     5.3021 </r>
       <r>     0.2770    11.6221     5.8088 </r>
       <r>     0.3206     6.4144     6.0884 </r>
       <r>     0.3642     3.5013     6.2410 </r>
       <r>     0.4078     3.3278     6.3861 </r>
       <r>     0.4514     6.2908     6.6604 </r>
       <r>     0.4950    11.6097     7.1665 </r>
       <r>     0.5386    16.3779     7.8805 </r>
       <r>     0.5822    18.2637     8.6767 </r>
       <r>     0.6258    15.5759     9.3557 </r>
       <r>     0.6694     8.9045     9.7439 </r>
       <r>     0.7130     3.0545     9.8771 </r>
       <r>     0.7566     1.1104     9.9255 </r>
       <r>     0.8002     1.0733     9.9723 </r>
       <r>     0.8438     0.6979    10.0027 </r>
       <r>     0.8874     0.1242    10.0081 </r>
       <r>     0.9310    -0.0943    10.0040 </r>
       <r>     0.9746    -0.0673    10.0011 </r>
       <r>     1.0182    -0.0202    10.0002 </r>
       <r>     1.0617    -0.0035    10.0000 </r>
       <r>     1.1053    -0.0004    10.0000 </r>
       <r>     1.1489    -0.0000    10.0000 </r>
       <r>     1.1925    -0.0000    10.0000 </r>
       <r>     1.2361    -0.0000    10.0000 </r>
       <r>     1.2797    -0.0000    10.0000 </r>
       <r>     1.3233    -0.0000    10.0000 </r>
       <r>     1.3669    -0.0000    10.0000 </r>
       <r>     1.4105    -0.0000    10.0000 </r>
       <r>     1.4541     0.0000    10.0000 </r>
       <r>     1.4977     0.0000    10.0000 </r>
       <r>     1.5413     0.0000    10.0000 </r>
       <r>     1.5849     0.0000    10.0000 </r>
       <r>     1.6285     0.0000    10.0000 </r>
       <r>     1.6721     0.0000    10.0000 </r>
       <r>     1.7157     0.0000    10.0000 </r>
       <r>     1.7593     0.0000    10.0000 </r>
      </set>
     </set>
    </array>
   </total>
  </dos>
 </calculation>
 <structure name="finalpos" >
  <crystal>
   <varray name="basis" >
    <v>      10.16000000       0.00000000       0.00000000 </v>
    <v>       0.00000000      11.76000000       0.00000000 </v>
    <v>       0.00000000       0.00000000      15.00000000 </v>
   </varray>
   <i name="volume">   1792.22400000 </i>
   <varray name="rec_basis" >
    <v>       0.09842520       0.00000000       0.00000000 </v>
    <v>       0.00000000       0.08503401       0.00000000 </v>
    <v>       0.00000000       0.00000000       0.06666667 </v>
   </varray>
  </crystal>
  <varray name="positions" >
   <v>       0.00000000       0.00000000      -0.00141430 </v>
   <v>       0.00000000       0.00000000       0.04861430 </v>
  </varray>
 </structure>
</modeling>
