Beta12Borophene !The name of the system 
           1
    10.160000    0.000000    0.000000
     0.000000   11.760000    0.000000
     0.000000    0.000000   15.000000
   H 
   2
Direct configuration=     1
   0.00000000  0.00000000  0.00000000
   0.00000000  0.00000000  0.04720000
Direct configuration=     2
   0.00000000  0.00000000 -0.00539567
   0.00000000  0.00000000  0.05259567
Direct configuration=     3
   0.00000000  0.00000000 -0.00144539
   0.00000000  0.00000000  0.04864539
Direct configuration=     4
   0.00000000  0.00000000 -0.00141430
   0.00000000  0.00000000  0.04861430
