  41  41   0   0
  0.4371278E+02  0.1016000E-08  0.1176000E-08  0.1500000E-08  0.5000000E-15
  1.000000000000000E-004
  CAR 
 Beta12Borophene !The name of the system 
      2.75908530    -18.05830274  301     -2.91812643      1.00000000
    -18.058  0.0000E+00  0.0000E+00  0.0000E+00  0.0000E+00
    -17.989  0.0000E+00  0.0000E+00  0.0000E+00  0.0000E+00
    -17.920 -0.2391E-34 -0.1369E-34 -0.1659E-35 -0.9503E-36
    -17.850 -0.2109E-29 -0.1264E-29 -0.1464E-30 -0.8773E-31
    -17.781 -0.7048E-25 -0.4421E-25 -0.4891E-26 -0.3068E-26
    -17.711 -0.8916E-21 -0.5853E-21 -0.6187E-22 -0.4062E-22
    -17.642 -0.4176E-17 -0.2841E-17 -0.2898E-18 -0.1972E-18
    -17.573 -0.7419E-14 -0.5338E-14 -0.5151E-15 -0.3706E-15
    -17.503 -0.4998E-11 -0.3764E-11 -0.3473E-12 -0.2615E-12
    -17.434 -0.1264E-08 -0.9959E-09 -0.8803E-10 -0.6937E-10
    -17.364 -0.1197E-06 -0.9871E-07 -0.8394E-08 -0.6919E-08
    -17.295 -0.4224E-05 -0.3645E-05 -0.3015E-06 -0.2598E-06
    -17.226 -0.5364E-04 -0.4858E-04 -0.4024E-05 -0.3631E-05
    -17.156 -0.1894E-03 -0.1855E-03 -0.1717E-04 -0.1650E-04
    -17.087  0.4783E-03  0.3934E-03  0.1602E-04  0.1080E-04
    -17.017  0.3715E-02  0.3499E-02  0.2738E-03  0.2536E-03
    -16.948  0.6535E-02  0.6490E-02  0.7272E-03  0.7039E-03
    -16.879  0.5362E-02  0.5465E-02  0.1099E-02  0.1083E-02
    -16.809  0.5235E-02  0.5192E-02  0.1463E-02  0.1443E-02
    -16.740  0.5615E-02  0.5669E-02  0.1852E-02  0.1837E-02
    -16.670  0.5024E-02  0.5115E-02  0.2201E-02  0.2192E-02
    -16.601  0.5103E-02  0.5129E-02  0.2555E-02  0.2548E-02
    -16.532  0.4754E-02  0.4733E-02  0.2885E-02  0.2876E-02
    -16.462  0.4438E-02  0.4467E-02  0.3193E-02  0.3186E-02
    -16.393  0.2008E-02  0.2064E-02  0.3332E-02  0.3329E-02
    -16.324  0.1727E-02  0.1666E-02  0.3452E-02  0.3445E-02
    -16.254  0.4088E-02  0.4061E-02  0.3736E-02  0.3727E-02
    -16.185  0.4560E-02  0.4561E-02  0.4052E-02  0.4043E-02
    -16.115  0.4846E-02  0.4826E-02  0.4388E-02  0.4378E-02
    -16.046  0.3523E-02  0.3606E-02  0.4633E-02  0.4628E-02
    -15.977  0.7049E-03  0.7692E-03  0.4682E-02  0.4682E-02
    -15.907 -0.3014E-03 -0.2938E-03  0.4661E-02  0.4661E-02
    -15.838 -0.1089E-03 -0.1321E-03  0.4653E-02  0.4652E-02
    -15.768  0.2034E-02  0.1942E-02  0.4794E-02  0.4787E-02
    -15.699  0.4787E-02  0.4750E-02  0.5126E-02  0.5117E-02
    -15.630  0.4695E-02  0.4700E-02  0.5452E-02  0.5443E-02
    -15.560  0.4748E-02  0.4750E-02  0.5782E-02  0.5772E-02
    -15.491  0.2972E-02  0.3063E-02  0.5988E-02  0.5985E-02
    -15.421  0.3847E-03  0.4339E-03  0.6015E-02  0.6015E-02
    -15.352 -0.1688E-03 -0.1703E-03  0.6003E-02  0.6003E-02
    -15.283 -0.6262E-04 -0.6394E-04  0.5999E-02  0.5999E-02
    -15.213 -0.1522E-03 -0.1476E-03  0.5988E-02  0.5989E-02
    -15.144  0.3165E-04  0.6071E-05  0.5990E-02  0.5989E-02
    -15.074  0.2338E-02  0.2246E-02  0.6153E-02  0.6145E-02
    -15.005  0.4854E-02  0.4831E-02  0.6489E-02  0.6480E-02
    -14.936  0.4608E-02  0.4618E-02  0.6809E-02  0.6800E-02
    -14.866  0.4721E-02  0.4729E-02  0.7137E-02  0.7129E-02
    -14.797  0.2759E-02  0.2841E-02  0.7328E-02  0.7326E-02
    -14.728  0.2754E-03  0.3138E-03  0.7347E-02  0.7348E-02
    -14.658 -0.1650E-03 -0.1674E-03  0.7336E-02  0.7336E-02
    -14.589 -0.7125E-04 -0.7246E-04  0.7331E-02  0.7331E-02
    -14.519 -0.1545E-03 -0.1520E-03  0.7320E-02  0.7320E-02
    -14.450  0.3351E-03  0.3179E-03  0.7343E-02  0.7342E-02
    -14.381  0.2611E-02  0.2562E-02  0.7524E-02  0.7520E-02
    -14.311  0.4487E-02  0.4468E-02  0.7836E-02  0.7830E-02
    -14.242  0.4668E-02  0.4632E-02  0.8160E-02  0.8152E-02
    -14.172  0.4414E-02  0.4377E-02  0.8466E-02  0.8455E-02
    -14.103  0.4210E-02  0.4245E-02  0.8758E-02  0.8750E-02
    -14.034  0.3024E-02  0.3102E-02  0.8968E-02  0.8965E-02
    -13.964  0.5825E-03  0.6291E-03  0.9008E-02  0.9009E-02
    -13.895  0.1070E-02  0.1018E-02  0.9083E-02  0.9079E-02
    -13.825  0.3583E-02  0.3476E-02  0.9331E-02  0.9321E-02
    -13.756  0.3733E-02  0.3768E-02  0.9590E-02  0.9582E-02
    -13.687  0.1878E-02  0.2026E-02  0.9721E-02  0.9723E-02
    -13.617  0.1562E-02  0.1587E-02  0.9829E-02  0.9833E-02
    -13.548  0.6506E-03  0.6041E-03  0.9874E-02  0.9875E-02
    -13.478  0.9808E-03  0.1049E-02  0.9942E-02  0.9948E-02
    -13.409  0.3977E-02  0.4036E-02  0.1022E-01  0.1023E-01
    -13.340  0.4534E-02  0.4422E-02  0.1053E-01  0.1053E-01
    -13.270  0.4250E-02  0.4079E-02  0.1083E-01  0.1082E-01
    -13.201  0.4924E-02  0.4894E-02  0.1117E-01  0.1116E-01
    -13.132  0.7091E-02  0.7179E-02  0.1166E-01  0.1166E-01
    -13.062  0.8786E-02  0.8795E-02  0.1227E-01  0.1227E-01
    -12.993  0.6847E-02  0.6814E-02  0.1275E-01  0.1274E-01
    -12.923  0.4959E-02  0.5061E-02  0.1309E-01  0.1309E-01
    -12.854  0.4861E-02  0.4932E-02  0.1343E-01  0.1343E-01
    -12.785  0.4866E-02  0.4827E-02  0.1377E-01  0.1377E-01
    -12.715  0.5209E-02  0.5231E-02  0.1413E-01  0.1413E-01
    -12.646  0.5013E-02  0.5022E-02  0.1447E-01  0.1448E-01
    -12.576  0.3732E-02  0.3704E-02  0.1473E-01  0.1474E-01
    -12.507  0.2471E-02  0.2479E-02  0.1491E-01  0.1491E-01
    -12.438  0.2871E-02  0.2913E-02  0.1510E-01  0.1511E-01
    -12.368  0.2498E-02  0.2466E-02  0.1528E-01  0.1528E-01
    -12.299  0.2284E-02  0.2327E-02  0.1544E-01  0.1544E-01
    -12.229  0.7129E-02  0.7200E-02  0.1593E-01  0.1594E-01
    -12.160  0.7092E-02  0.7018E-02  0.1642E-01  0.1643E-01
    -12.091  0.2917E-02  0.2815E-02  0.1663E-01  0.1662E-01
    -12.021  0.4199E-02  0.4169E-02  0.1692E-01  0.1691E-01
    -11.952  0.8566E-02  0.8524E-02  0.1751E-01  0.1750E-01
    -11.882  0.9568E-02  0.9604E-02  0.1818E-01  0.1817E-01
    -11.813  0.6477E-02  0.6582E-02  0.1862E-01  0.1863E-01
    -11.744  0.2345E-02  0.2334E-02  0.1879E-01  0.1879E-01
    -11.674  0.1487E-02  0.1517E-02  0.1889E-01  0.1890E-01
    -11.605  0.3013E-02  0.3020E-02  0.1910E-01  0.1910E-01
    -11.536  0.1997E-02  0.1963E-02  0.1924E-01  0.1924E-01
    -11.466  0.9166E-03  0.8658E-03  0.1930E-01  0.1930E-01
    -11.397  0.1407E-02  0.1202E-02  0.1940E-01  0.1938E-01
    -11.327  0.2357E-02  0.2279E-02  0.1956E-01  0.1954E-01
    -11.258  0.1481E-02  0.1687E-02  0.1967E-01  0.1966E-01
    -11.189  0.6425E-04  0.1630E-03  0.1967E-01  0.1967E-01
    -11.119  0.3458E-04  0.2518E-04  0.1967E-01  0.1967E-01
    -11.050  0.6059E-03  0.6030E-03  0.1971E-01  0.1971E-01
    -10.980  0.1375E-02  0.1356E-02  0.1981E-01  0.1981E-01
    -10.911  0.3229E-02  0.3177E-02  0.2003E-01  0.2003E-01
    -10.842  0.3798E-02  0.3633E-02  0.2030E-01  0.2028E-01
    -10.772  0.6851E-02  0.6364E-02  0.2077E-01  0.2072E-01
    -10.703  0.9404E-02  0.9571E-02  0.2143E-01  0.2139E-01
    -10.633  0.4031E-02  0.4598E-02  0.2171E-01  0.2171E-01
    -10.564  0.1347E-02  0.1476E-02  0.2180E-01  0.2181E-01
    -10.495  0.1210E-02  0.1116E-02  0.2188E-01  0.2189E-01
    -10.425  0.1814E-03  0.1305E-03  0.2190E-01  0.2189E-01
    -10.356 -0.1273E-03 -0.1251E-03  0.2189E-01  0.2189E-01
    -10.286  0.1354E-03  0.1365E-03  0.2190E-01  0.2190E-01
    -10.217  0.6772E-03  0.6716E-03  0.2194E-01  0.2194E-01
    -10.148  0.6174E-03  0.6402E-03  0.2199E-01  0.2199E-01
    -10.078  0.1777E-02  0.1876E-02  0.2211E-01  0.2212E-01
    -10.009  0.3401E-02  0.3395E-02  0.2234E-01  0.2235E-01
     -9.940  0.1373E-02  0.1270E-02  0.2244E-01  0.2244E-01
     -9.870  0.1086E-02  0.1024E-02  0.2252E-01  0.2251E-01
     -9.801  0.3657E-02  0.3659E-02  0.2277E-01  0.2277E-01
     -9.731  0.3140E-02  0.3121E-02  0.2299E-01  0.2298E-01
     -9.662  0.4483E-02  0.4347E-02  0.2330E-01  0.2328E-01
     -9.593  0.7251E-02  0.7307E-02  0.2380E-01  0.2379E-01
     -9.523  0.4463E-02  0.4567E-02  0.2411E-01  0.2411E-01
     -9.454  0.2650E-02  0.2655E-02  0.2429E-01  0.2429E-01
     -9.384  0.3648E-02  0.3635E-02  0.2455E-01  0.2454E-01
     -9.315  0.5147E-02  0.5103E-02  0.2491E-01  0.2490E-01
     -9.246  0.6099E-02  0.6112E-02  0.2533E-01  0.2532E-01
     -9.176  0.3006E-02  0.3065E-02  0.2554E-01  0.2554E-01
     -9.107  0.2068E-02  0.1985E-02  0.2568E-01  0.2567E-01
     -9.037  0.5782E-02  0.5711E-02  0.2608E-01  0.2607E-01
     -8.968  0.6447E-02  0.6507E-02  0.2653E-01  0.2652E-01
     -8.899  0.4129E-02  0.4218E-02  0.2682E-01  0.2681E-01
     -8.829  0.3029E-02  0.3060E-02  0.2703E-01  0.2703E-01
     -8.760  0.4091E-02  0.4076E-02  0.2731E-01  0.2731E-01
     -8.690  0.2386E-02  0.2388E-02  0.2748E-01  0.2747E-01
     -8.621  0.2283E-02  0.2229E-02  0.2763E-01  0.2763E-01
     -8.552  0.1061E-01  0.1054E-01  0.2837E-01  0.2836E-01
     -8.482  0.1489E-01  0.1489E-01  0.2940E-01  0.2939E-01
     -8.413  0.9192E-02  0.9116E-02  0.3004E-01  0.3003E-01
     -8.344  0.5498E-02  0.5605E-02  0.3042E-01  0.3041E-01
     -8.274  0.3305E-02  0.3472E-02  0.3065E-01  0.3066E-01
     -8.205  0.1532E-02  0.1414E-02  0.3076E-01  0.3075E-01
     -8.135  0.3908E-02  0.3116E-02  0.3103E-01  0.3097E-01
     -8.066  0.9316E-02  0.8561E-02  0.3168E-01  0.3156E-01
     -7.997  0.1238E-01  0.1254E-01  0.3254E-01  0.3243E-01
     -7.927  0.1029E-01  0.1122E-01  0.3325E-01  0.3321E-01
     -7.858  0.5365E-02  0.5891E-02  0.3362E-01  0.3362E-01
     -7.788  0.3078E-02  0.2716E-02  0.3384E-01  0.3381E-01
     -7.719  0.6999E-02  0.6699E-02  0.3432E-01  0.3428E-01
     -7.650  0.6545E-02  0.6909E-02  0.3477E-01  0.3475E-01
     -7.580  0.2522E-02  0.2683E-02  0.3495E-01  0.3494E-01
     -7.511  0.3993E-02  0.3808E-02  0.3523E-01  0.3521E-01
     -7.441  0.8782E-02  0.8716E-02  0.3584E-01  0.3581E-01
     -7.372  0.6932E-02  0.7128E-02  0.3632E-01  0.3630E-01
     -7.303  0.1549E-02  0.1683E-02  0.3642E-01  0.3642E-01
     -7.233  0.3576E-02  0.3216E-02  0.3667E-01  0.3664E-01
     -7.164  0.1067E-01  0.1044E-01  0.3741E-01  0.3737E-01
     -7.094  0.9926E-02  0.1029E-01  0.3810E-01  0.3808E-01
     -7.025  0.6876E-02  0.6769E-02  0.3858E-01  0.3855E-01
     -6.956  0.4905E-02  0.4930E-02  0.3892E-01  0.3889E-01
     -6.886  0.3966E-02  0.4287E-02  0.3920E-01  0.3919E-01
     -6.817  0.5836E-02  0.5921E-02  0.3960E-01  0.3960E-01
     -6.748  0.4667E-02  0.4601E-02  0.3992E-01  0.3992E-01
     -6.678  0.2582E-02  0.2403E-02  0.4010E-01  0.4009E-01
     -6.609  0.3358E-02  0.3430E-02  0.4034E-01  0.4033E-01
     -6.539  0.3478E-02  0.3693E-02  0.4058E-01  0.4058E-01
     -6.470  0.4907E-02  0.4530E-02  0.4092E-01  0.4090E-01
     -6.401  0.8880E-02  0.8312E-02  0.4153E-01  0.4147E-01
     -6.331  0.7495E-02  0.7639E-02  0.4205E-01  0.4200E-01
     -6.262  0.4604E-02  0.4740E-02  0.4237E-01  0.4233E-01
     -6.192  0.5090E-02  0.4937E-02  0.4273E-01  0.4268E-01
     -6.123  0.3673E-02  0.4187E-02  0.4298E-01  0.4297E-01
     -6.054  0.1679E-02  0.1912E-02  0.4310E-01  0.4310E-01
     -5.984  0.2761E-02  0.2384E-02  0.4329E-01  0.4326E-01
     -5.915  0.6325E-02  0.6074E-02  0.4373E-01  0.4369E-01
     -5.845  0.6410E-02  0.6398E-02  0.4417E-01  0.4413E-01
     -5.776  0.5900E-02  0.4978E-02  0.4458E-01  0.4448E-01
     -5.707  0.6032E-02  0.5237E-02  0.4500E-01  0.4484E-01
     -5.637  0.6179E-02  0.7053E-02  0.4543E-01  0.4533E-01
     -5.568  0.7965E-02  0.8373E-02  0.4598E-01  0.4591E-01
     -5.498  0.9876E-02  0.8903E-02  0.4667E-01  0.4653E-01
     -5.429  0.8505E-02  0.8227E-02  0.4726E-01  0.4710E-01
     -5.360  0.6393E-02  0.7048E-02  0.4770E-01  0.4759E-01
     -5.290  0.6249E-02  0.6633E-02  0.4814E-01  0.4805E-01
     -5.221  0.7257E-02  0.7203E-02  0.4864E-01  0.4855E-01
     -5.152  0.7139E-02  0.7963E-02  0.4913E-01  0.4910E-01
     -5.082  0.6319E-02  0.6142E-02  0.4957E-01  0.4953E-01
     -5.013  0.8612E-02  0.8358E-02  0.5017E-01  0.5011E-01
     -4.943  0.6830E-02  0.7392E-02  0.5064E-01  0.5062E-01
     -4.874  0.6137E-02  0.6219E-02  0.5107E-01  0.5105E-01
     -4.805  0.7678E-02  0.7760E-02  0.5160E-01  0.5159E-01
     -4.735  0.6781E-02  0.6854E-02  0.5207E-01  0.5206E-01
     -4.666  0.7888E-02  0.7806E-02  0.5262E-01  0.5261E-01
     -4.596  0.6242E-02  0.6314E-02  0.5305E-01  0.5304E-01
     -4.527  0.2667E-02  0.2535E-02  0.5324E-01  0.5322E-01
     -4.458  0.3415E-02  0.3492E-02  0.5348E-01  0.5346E-01
     -4.388  0.5729E-02  0.5929E-02  0.5387E-01  0.5387E-01
     -4.319  0.5716E-02  0.5253E-02  0.5427E-01  0.5424E-01
     -4.249  0.5260E-02  0.4289E-02  0.5464E-01  0.5454E-01
     -4.180  0.4631E-02  0.4632E-02  0.5496E-01  0.5486E-01
     -4.111  0.4544E-02  0.5557E-02  0.5527E-01  0.5524E-01
     -4.041  0.2605E-02  0.3107E-02  0.5545E-01  0.5546E-01
     -3.972  0.3484E-02  0.2452E-02  0.5570E-01  0.5563E-01
     -3.902  0.9264E-02  0.7491E-02  0.5634E-01  0.5615E-01
     -3.833  0.9154E-02  0.1019E-01  0.5697E-01  0.5686E-01
     -3.764  0.5337E-02  0.6689E-02  0.5734E-01  0.5732E-01
     -3.694  0.7154E-02  0.6940E-02  0.5784E-01  0.5780E-01
     -3.625  0.6872E-02  0.7180E-02  0.5832E-01  0.5830E-01
     -3.556  0.3087E-02  0.3210E-02  0.5853E-01  0.5852E-01
     -3.486  0.1127E-02  0.6334E-03  0.5861E-01  0.5857E-01
     -3.417  0.4203E-02  0.3440E-02  0.5890E-01  0.5881E-01
     -3.347  0.9317E-02  0.7819E-02  0.5955E-01  0.5935E-01
     -3.278  0.9454E-02  0.7646E-02  0.6020E-01  0.5988E-01
     -3.209  0.4735E-02  0.5642E-02  0.6053E-01  0.6027E-01
     -3.139  0.8944E-03  0.3390E-02  0.6059E-01  0.6051E-01
     -3.070  0.3039E-02  0.3593E-02  0.6080E-01  0.6075E-01
     -3.000  0.5947E-02  0.4368E-02  0.6122E-01  0.6106E-01
     -2.931  0.5267E-02  0.3758E-02  0.6158E-01  0.6132E-01
     -2.862  0.4919E-02  0.2674E-02  0.6192E-01  0.6150E-01
     -2.792  0.5570E-02  0.2636E-02  0.6231E-01  0.6169E-01
     -2.723  0.3292E-02  0.4295E-02  0.6254E-01  0.6199E-01
     -2.653  0.3207E-02  0.5177E-02  0.6276E-01  0.6234E-01
     -2.584  0.5356E-02  0.4370E-02  0.6313E-01  0.6265E-01
     -2.515  0.2616E-02  0.3725E-02  0.6331E-01  0.6291E-01
     -2.445  0.2068E-02  0.2665E-02  0.6346E-01  0.6309E-01
     -2.376  0.6208E-02  0.3620E-02  0.6389E-01  0.6334E-01
     -2.306  0.4581E-02  0.6780E-02  0.6421E-01  0.6381E-01
     -2.237  0.3533E-03  0.4634E-02  0.6423E-01  0.6413E-01
     -2.168  0.1283E-02  0.1634E-02  0.6432E-01  0.6425E-01
     -2.098  0.3333E-02  0.2637E-02  0.6455E-01  0.6443E-01
     -2.029  0.2005E-02  0.3264E-02  0.6469E-01  0.6466E-01
     -1.960  0.2621E-02  0.3142E-02  0.6487E-01  0.6488E-01
     -1.890  0.5381E-02  0.4035E-02  0.6525E-01  0.6516E-01
     -1.821  0.5623E-02  0.4496E-02  0.6564E-01  0.6547E-01
     -1.751  0.2282E-02  0.3842E-02  0.6579E-01  0.6573E-01
     -1.682 -0.7618E-04  0.9146E-03  0.6579E-01  0.6580E-01
     -1.613 -0.1535E-03 -0.2059E-03  0.6578E-01  0.6578E-01
     -1.543 -0.1812E-04 -0.6783E-04  0.6578E-01  0.6578E-01
     -1.474 -0.1194E-04 -0.1001E-04  0.6578E-01  0.6578E-01
     -1.404 -0.9978E-04 -0.6923E-04  0.6577E-01  0.6577E-01
     -1.335 -0.1307E-03 -0.2049E-03  0.6576E-01  0.6576E-01
     -1.266  0.1331E-02  0.8099E-03  0.6585E-01  0.6581E-01
     -1.196  0.4897E-02  0.4391E-02  0.6619E-01  0.6612E-01
     -1.127  0.5824E-02  0.5866E-02  0.6660E-01  0.6653E-01
     -1.057  0.2706E-02  0.2624E-02  0.6678E-01  0.6671E-01
     -0.988  0.1535E-02  0.9502E-03  0.6689E-01  0.6677E-01
     -0.919  0.1219E-02  0.1507E-02  0.6698E-01  0.6688E-01
     -0.849  0.1782E-03  0.1356E-02  0.6699E-01  0.6697E-01
     -0.780  0.2597E-02  0.2602E-02  0.6717E-01  0.6715E-01
     -0.710  0.6859E-02  0.6404E-02  0.6764E-01  0.6760E-01
     -0.641  0.4816E-02  0.5200E-02  0.6798E-01  0.6796E-01
     -0.572  0.6244E-03  0.1040E-02  0.6802E-01  0.6803E-01
     -0.502  0.1455E-02  0.1030E-02  0.6812E-01  0.6810E-01
     -0.433  0.5663E-02  0.4412E-02  0.6852E-01  0.6841E-01
     -0.364  0.5710E-02  0.5600E-02  0.6891E-01  0.6880E-01
     -0.294  0.1493E-02  0.2428E-02  0.6902E-01  0.6897E-01
     -0.225  0.2420E-02  0.1174E-02  0.6918E-01  0.6905E-01
     -0.155  0.4819E-02  0.4372E-02  0.6952E-01  0.6935E-01
     -0.086  0.2255E-02  0.4203E-02  0.6967E-01  0.6964E-01
     -0.017  0.7232E-04  0.6013E-03  0.6968E-01  0.6968E-01
      0.053  0.3427E-03  0.5710E-04  0.6970E-01  0.6969E-01
      0.122  0.7829E-03  0.5580E-03  0.6976E-01  0.6973E-01
      0.192  0.4145E-02  0.2781E-02  0.7005E-01  0.6992E-01
      0.261  0.8532E-02  0.7767E-02  0.7064E-01  0.7046E-01
      0.330  0.5806E-02  0.7100E-02  0.7104E-01  0.7095E-01
      0.400  0.1803E-02  0.2894E-02  0.7117E-01  0.7115E-01
      0.469  0.1127E-02  0.7775E-03  0.7124E-01  0.7121E-01
      0.539  0.4743E-02  0.2344E-02  0.7157E-01  0.7137E-01
      0.608  0.6340E-02  0.6466E-02  0.7201E-01  0.7182E-01
      0.677  0.3721E-02  0.5602E-02  0.7227E-01  0.7221E-01
      0.747  0.5858E-02  0.4164E-02  0.7268E-01  0.7249E-01
      0.816  0.7219E-02  0.6093E-02  0.7318E-01  0.7292E-01
      0.886  0.3580E-02  0.5758E-02  0.7343E-01  0.7332E-01
      0.955  0.4577E-02  0.3731E-02  0.7374E-01  0.7358E-01
      1.024  0.9572E-02  0.7259E-02  0.7441E-01  0.7408E-01
      1.094  0.9758E-02  0.1114E-01  0.7509E-01  0.7485E-01
      1.163  0.7568E-02  0.7943E-02  0.7561E-01  0.7540E-01
      1.232  0.8891E-02  0.6333E-02  0.7623E-01  0.7584E-01
      1.302  0.1134E-01  0.1132E-01  0.7702E-01  0.7663E-01
      1.371  0.1213E-01  0.1266E-01  0.7786E-01  0.7751E-01
      1.441  0.1069E-01  0.1144E-01  0.7860E-01  0.7830E-01
      1.510  0.1050E-01  0.1090E-01  0.7933E-01  0.7906E-01
      1.579  0.1241E-01  0.1153E-01  0.8019E-01  0.7986E-01
      1.649  0.1349E-01  0.1270E-01  0.8113E-01  0.8074E-01
      1.718  0.1002E-01  0.1105E-01  0.8182E-01  0.8151E-01
      1.788  0.3058E-02  0.6039E-02  0.8203E-01  0.8192E-01
      1.857 -0.2151E-03  0.1452E-02  0.8202E-01  0.8203E-01
      1.926 -0.2293E-03 -0.2218E-03  0.8200E-01  0.8201E-01
      1.996 -0.2813E-04 -0.1293E-03  0.8200E-01  0.8200E-01
      2.065 -0.1101E-05 -0.1292E-04  0.8200E-01  0.8200E-01
      2.135 -0.1528E-07 -0.4095E-06  0.8200E-01  0.8200E-01
      2.204 -0.7770E-10 -0.4550E-08  0.8200E-01  0.8200E-01
      2.273 -0.1466E-12 -0.1838E-10  0.8200E-01  0.8200E-01
      2.343 -0.1031E-15 -0.2745E-13  0.8200E-01  0.8200E-01
      2.412  0.0000E+00 -0.1564E-16  0.8200E-01  0.8200E-01
      2.482  0.0000E+00  0.0000E+00  0.8200E-01  0.8200E-01
      2.551  0.0000E+00  0.0000E+00  0.8200E-01  0.8200E-01
      2.620  0.0000E+00  0.0000E+00  0.8200E-01  0.8200E-01
      2.690  0.0000E+00  0.0000E+00  0.8200E-01  0.8200E-01
      2.759  0.0000E+00  0.0000E+00  0.8200E-01  0.8200E-01
