   41   41 1000    2
  0.4371278E+02  0.1016000E-08  0.1176000E-08  0.1500000E-08  0.5000000E-15
  1.000000000000000E-004
  CAR 
 Beta12Borophene !The name of the system 
  123    6   82
 
  0.0000000E+00  0.0000000E+00  0.2500000E+00  0.1111111E+00
   1      -17.058303    -17.055052
   2      -16.805425    -16.802332
   3      -16.329431    -16.326644
   4      -16.277964    -16.276972
   5      -16.087500    -16.084267
   6      -16.079816    -16.078537
   7      -14.406130    -14.406215
   8      -14.373345    -14.369187
   9      -14.192955    -14.192625
  10      -13.897817    -13.897409
  11      -13.773755    -13.769474
  12      -13.408262    -13.409970
  13      -13.313043    -13.313938
  14      -12.784743    -12.783986
  15      -12.233479    -12.234266
  16      -12.209338    -12.209335
  17      -12.145668    -12.148859
  18      -11.489206    -11.490871
  19      -11.388066    -11.379335
  20      -11.059048    -11.058722
  21      -10.920846    -10.921267
  22      -10.720627    -10.719025
  23      -10.691265    -10.689590
  24      -10.223756    -10.223748
  25       -9.830060     -9.829757
  26       -9.628139     -9.626578
  27       -8.410154     -8.394107
  28       -8.355427     -8.356097
  29       -8.112419     -8.112469
  30       -8.089529     -8.082498
  31       -8.083695     -8.078457
  32       -7.954455     -7.953121
  33       -7.896131     -7.897112
  34       -7.795469     -7.794074
  35       -7.711221     -7.712829
  36       -7.516828     -7.509937
  37       -7.163904     -7.146603
  38       -7.144105     -7.141642
  39       -6.969454     -6.969209
  40       -6.778742     -6.774729
  41       -6.525909     -6.530273
  42       -6.430811     -6.428408
  43       -6.427789     -6.427070
  44       -6.410537     -6.404881
  45       -6.013115     -6.010842
  46       -5.795735     -5.795313
  47       -5.765238     -5.689781
  48       -5.564330     -5.565142
  49       -5.511141     -5.510311
  50       -5.190786     -5.189559
  51       -4.889998     -4.887384
  52       -4.687563     -4.688037
  53       -4.552747     -4.555674
  54       -4.512573     -4.484071
  55       -4.296163     -4.297112
  56       -4.142204     -4.143554
  57       -3.608058     -3.607258
  58       -3.497192     -3.448873
  59       -3.350989     -3.321963
  60       -3.043888     -3.027273
  61       -3.028089     -2.980498
  62       -2.960670     -2.944108
  63       -2.936287     -2.637398
  64       -2.623356     -2.630691
  65       -1.996868     -1.988556
  66       -1.835667     -1.834556
  67       -1.095466     -1.027190
  68       -0.773816     -0.760327
  69       -0.535646     -0.538118
  70        0.052945      0.081123
  71        0.206694      0.229724
  72        0.548736      0.545006
  73        0.714600      0.737208
  74        0.793496      0.862170
  75        1.012397      1.049736
  76        1.123216      1.132411
  77        1.210725      1.235709
  78        1.242150      1.291921
  79        1.401104      1.427812
  80        1.486155      1.517276
  81        1.515284      1.564165
  82        1.549027      1.572411
 
  0.3333333E+00  0.0000000E+00  0.2500000E+00  0.1111111E+00
   1      -17.010125    -17.006804
   2      -16.870818    -16.867795
   3      -16.281057    -16.278102
   4      -16.233719    -16.232698
   5      -16.149488    -16.146517
   6      -16.134688    -16.133471
   7      -14.360540    -14.360559
   8      -14.252216    -14.252001
   9      -14.195506    -14.190758
  10      -13.844711    -13.842928
  11      -13.801008    -13.798253
  12      -13.321100    -13.320947
  13      -13.109809    -13.110675
  14      -13.102363    -13.103240
  15      -12.613645    -12.614460
  16      -12.574066    -12.574441
  17      -11.986815    -11.989663
  18      -11.659864    -11.661718
  19      -10.933594    -10.932942
  20      -10.885799    -10.881614
  21      -10.780145    -10.778507
  22      -10.750474    -10.744218
  23      -10.742513    -10.740709
  24       -9.795649     -9.795745
  25       -9.397723     -9.397258
  26       -9.307757     -9.306737
  27       -9.073312     -9.069995
  28       -8.729346     -8.728427
  29       -8.490807     -8.490711
  30       -8.440518     -8.440905
  31       -8.201347     -8.201362
  32       -8.085539     -8.068428
  33       -8.047195     -8.046492
  34       -7.916498     -7.917956
  35       -7.755910     -7.746063
  36       -7.207965     -7.207904
  37       -7.196630     -7.187183
  38       -6.997265     -6.983322
  39       -6.885837     -6.884909
  40       -6.656625     -6.650012
  41       -6.623408     -6.620985
  42       -6.544086     -6.545531
  43       -6.423346     -6.422333
  44       -6.249259     -6.247888
  45       -6.113115     -6.112256
  46       -5.692470     -5.690521
  47       -5.490467     -5.447993
  48       -5.265953     -5.209292
  49       -5.072138     -5.071295
  50       -5.016813     -5.018048
  51       -4.739196     -4.738113
  52       -4.709265     -4.707386
  53       -4.427820     -4.430260
  54       -4.252827     -4.201866
  55       -4.057393     -4.055404
  56       -3.936232     -3.936520
  57       -3.850261     -3.845153
  58       -3.776317     -3.780268
  59       -3.708355     -3.704822
  60       -3.392816     -3.392216
  61       -3.377186     -3.356050
  62       -3.260265     -3.254835
  63       -2.982436     -2.890868
  64       -2.794184     -2.794312
  65       -2.581585     -2.247032
  66       -1.943151     -1.946897
  67       -0.717689     -0.716021
  68       -0.392047     -0.339212
  69        0.187577      0.212093
  70        0.221262      0.238206
  71        0.369830      0.386469
  72        0.550922      0.572117
  73        0.891136      0.906184
  74        0.981435      1.024416
  75        1.080062      1.095628
  76        1.219387      1.233709
  77        1.256331      1.280223
  78        1.357182      1.439294
  79        1.447961      1.468192
  80        1.489169      1.514802
  81        1.552916      1.589864
  82        1.622728      1.654746
 
 -0.3333333E+00  0.0000000E+00  0.2500000E+00  0.1111111E+00
   1      -17.010125    -17.006804
   2      -16.870818    -16.867795
   3      -16.281057    -16.278102
   4      -16.233719    -16.232698
   5      -16.149488    -16.146517
   6      -16.134688    -16.133471
   7      -14.360540    -14.360559
   8      -14.252216    -14.252001
   9      -14.195506    -14.190758
  10      -13.844711    -13.842928
  11      -13.801008    -13.798253
  12      -13.321100    -13.320947
  13      -13.109809    -13.110675
  14      -13.102363    -13.103240
  15      -12.613645    -12.614460
  16      -12.574066    -12.574441
  17      -11.986815    -11.989663
  18      -11.659864    -11.661717
  19      -10.933594    -10.932942
  20      -10.885798    -10.881614
  21      -10.780145    -10.778507
  22      -10.750474    -10.744218
  23      -10.742513    -10.740709
  24       -9.795649     -9.795745
  25       -9.397723     -9.397258
  26       -9.307757     -9.306737
  27       -9.073312     -9.069995
  28       -8.729346     -8.728427
  29       -8.490807     -8.490711
  30       -8.440518     -8.440905
  31       -8.201347     -8.201362
  32       -8.085539     -8.068428
  33       -8.047195     -8.046492
  34       -7.916498     -7.917956
  35       -7.755910     -7.746063
  36       -7.207965     -7.207904
  37       -7.196630     -7.187183
  38       -6.997265     -6.983322
  39       -6.885837     -6.884909
  40       -6.656625     -6.650012
  41       -6.623408     -6.620985
  42       -6.544086     -6.545531
  43       -6.423346     -6.422333
  44       -6.249259     -6.247888
  45       -6.113115     -6.112256
  46       -5.692470     -5.690521
  47       -5.490467     -5.447993
  48       -5.265953     -5.209292
  49       -5.072138     -5.071295
  50       -5.016813     -5.018048
  51       -4.739196     -4.738113
  52       -4.709265     -4.707386
  53       -4.427820     -4.430260
  54       -4.252827     -4.201866
  55       -4.057393     -4.055404
  56       -3.936232     -3.936520
  57       -3.850261     -3.845153
  58       -3.776317     -3.780268
  59       -3.708355     -3.704822
  60       -3.392816     -3.392216
  61       -3.377186     -3.356051
  62       -3.260265     -3.254835
  63       -2.982436     -2.890868
  64       -2.794184     -2.794312
  65       -2.581585     -2.247032
  66       -1.943151     -1.946897
  67       -0.717689     -0.716021
  68       -0.392047     -0.339211
  69        0.187569      0.212087
  70        0.221261      0.238205
  71        0.369854      0.386485
  72        0.550927      0.572120
  73        0.891137      0.906196
  74        0.981545      1.024497
  75        1.080063      1.095629
  76        1.219303      1.233681
  77        1.256285      1.280210
  78        1.357196      1.439318
  79        1.447215      1.467748
  80        1.489125      1.514746
  81        1.552874      1.589681
  82        1.622755      1.654776
 
  0.0000000E+00  0.3333333E+00  0.2500000E+00  0.2222222E+00
   1      -16.997157    -16.993450
   2      -16.735590    -16.732189
   3      -16.677512    -16.676123
   4      -16.464314    -16.462359
   5      -15.758665    -15.756740
   6      -15.541556    -15.539380
   7      -15.071346    -15.069417
   8      -14.853039    -14.851111
   9      -14.298869    -14.297067
  10      -13.645189    -13.647481
  11      -13.161597    -13.160403
  12      -12.982460    -12.979210
  13      -12.906742    -12.907545
  14      -12.751112    -12.750728
  15      -12.444018    -12.444556
  16      -12.426617    -12.429115
  17      -12.073793    -12.072253
  18      -11.919260    -11.919557
  19      -11.882679    -11.880847
  20      -11.612467    -11.614148
  21      -11.334413    -11.326226
  22      -10.565284    -10.569259
  23       -9.828673     -9.826104
  24       -9.518969     -9.517597
  25       -9.428265     -9.426986
  26       -9.310778     -9.309390
  27       -8.920711     -8.920133
  28       -8.575833     -8.574750
  29       -8.545225     -8.544503
  30       -8.467001     -8.465702
  31       -8.125131     -8.104869
  32       -7.942807     -7.934401
  33       -7.929122     -7.927805
  34       -7.709281     -7.709876
  35       -7.611997     -7.607388
  36       -7.420824     -7.421419
  37       -7.381497     -7.375280
  38       -7.027363     -7.022172
  39       -6.844989     -6.844437
  40       -6.841193     -6.842241
  41       -6.780807     -6.782945
  42       -6.362744     -6.339484
  43       -6.328187     -6.326973
  44       -5.924650     -5.910000
  45       -5.894058     -5.894096
  46       -5.715113     -5.666588
  47       -5.663625     -5.657512
  48       -5.584133     -5.583162
  49       -5.474276     -5.473796
  50       -5.237888     -5.238333
  51       -5.220870     -5.220279
  52       -4.770138     -4.770081
  53       -4.669241     -4.666587
  54       -4.649938     -4.644294
  55       -4.630014     -4.630248
  56       -3.907111     -3.866641
  57       -3.718829     -3.705702
  58       -3.606093     -3.604365
  59       -3.308227     -3.148331
  60       -3.092382     -3.091960
  61       -3.036422     -3.022065
  62       -2.790804     -2.633792
  63       -2.421344     -2.378857
  64       -2.378631     -2.337961
  65       -1.923497     -1.917751
  66       -1.248383     -1.229110
  67       -1.196672     -1.189750
  68       -0.983958     -0.917412
  69       -0.765450     -0.769653
  70       -0.441017     -0.431801
  71       -0.162958     -0.155366
  72        0.268185      0.304802
  73        0.619007      0.640278
  74        0.725011      0.724247
  75        0.752532      0.791703
  76        0.977431      0.998235
  77        1.138386      1.152458
  78        1.168645      1.280099
  79        1.332579      1.347880
  80        1.349311      1.404690
  81        1.574821      1.595420
  82        1.649225      1.692697
 
  0.3333333E+00  0.3333333E+00  0.2500000E+00  0.2222222E+00
   1      -16.949471    -16.945691
   2      -16.801767    -16.798444
   3      -16.629951    -16.628448
   4      -16.522982    -16.521187
   5      -15.712370    -15.710416
   6      -15.599475    -15.597406
   7      -15.024392    -15.022506
   8      -14.910350    -14.908511
   9      -14.094490    -14.092743
  10      -13.426496    -13.428534
  11      -13.238736    -13.235484
  12      -13.111609    -13.109807
  13      -13.014505    -13.013834
  14      -12.855005    -12.855964
  15      -12.702766    -12.703837
  16      -12.258633    -12.260230
  17      -12.217548    -12.218670
  18      -11.995492    -11.994064
  19      -11.927663    -11.926002
  20      -11.827539    -11.829024
  21      -10.754220    -10.745061
  22      -10.045560    -10.048056
  23       -9.658253     -9.655168
  24       -9.611871     -9.611003
  25       -9.252244     -9.251041
  26       -9.063489     -9.062329
  27       -8.980518     -8.978758
  28       -8.802857     -8.802773
  29       -8.567215     -8.566544
  30       -8.544704     -8.543346
  31       -8.509587     -8.509866
  32       -8.343958     -8.343667
  33       -8.030700     -8.025186
  34       -8.006941     -7.990941
  35       -7.721440     -7.712826
  36       -7.483266     -7.480448
  37       -7.453937     -7.450658
  38       -7.200254     -7.197230
  39       -7.155920     -7.154763
  40       -7.068161     -7.068980
  41       -6.428493     -6.421855
  42       -6.210567     -6.196372
  43       -5.943059     -5.937688
  44       -5.805693     -5.793978
  45       -5.589131     -5.577247
  46       -5.500617     -5.483413
  47       -5.395026     -5.365208
  48       -5.332658     -5.330697
  49       -5.169494     -5.168370
  50       -5.052691     -5.037088
  51       -4.997810     -4.992064
  52       -4.869142     -4.866144
  53       -4.845785     -4.842701
  54       -4.424562     -4.424222
  55       -4.316830     -4.312355
  56       -4.161325     -4.150351
  57       -3.932357     -3.917247
  58       -3.881550     -3.862092
  59       -3.689687     -3.684972
  60       -3.395140     -3.380740
  61       -3.291004     -3.259333
  62       -2.862147     -2.721534
  63       -2.634946     -2.518609
  64       -2.383488     -2.327964
  65       -2.132377     -2.095919
  66       -1.850596     -1.804329
  67       -1.165183     -1.153006
  68       -0.709650     -0.698360
  69       -0.436589     -0.424024
  70       -0.207956     -0.159132
  71        0.247077      0.261078
  72        0.540074      0.592500
  73        0.781983      0.824187
  74        0.997931      1.031439
  75        1.063237      1.093477
  76        1.250204      1.281820
  77        1.328433      1.340678
  78        1.406507      1.416935
  79        1.511037      1.527033
  80        1.606795      1.629488
  81        1.655782      1.679472
  82        1.706708      1.759085
 
 -0.3333333E+00  0.3333333E+00  0.2500000E+00  0.2222222E+00
   1      -16.949471    -16.945691
   2      -16.801767    -16.798444
   3      -16.629951    -16.628448
   4      -16.522982    -16.521187
   5      -15.712370    -15.710416
   6      -15.599475    -15.597406
   7      -15.024392    -15.022506
   8      -14.910350    -14.908511
   9      -14.094490    -14.092743
  10      -13.426496    -13.428534
  11      -13.238736    -13.235485
  12      -13.111609    -13.109807
  13      -13.014505    -13.013834
  14      -12.855005    -12.855964
  15      -12.702766    -12.703837
  16      -12.258633    -12.260230
  17      -12.217548    -12.218670
  18      -11.995492    -11.994064
  19      -11.927663    -11.926002
  20      -11.827539    -11.829024
  21      -10.754220    -10.745061
  22      -10.045560    -10.048056
  23       -9.658253     -9.655168
  24       -9.611871     -9.611003
  25       -9.252244     -9.251041
  26       -9.063489     -9.062329
  27       -8.980518     -8.978758
  28       -8.802857     -8.802773
  29       -8.567215     -8.566544
  30       -8.544704     -8.543347
  31       -8.509587     -8.509866
  32       -8.343958     -8.343667
  33       -8.030700     -8.025186
  34       -8.006941     -7.990941
  35       -7.721440     -7.712826
  36       -7.483265     -7.480448
  37       -7.453937     -7.450658
  38       -7.200254     -7.197231
  39       -7.155920     -7.154763
  40       -7.068161     -7.068980
  41       -6.428493     -6.421855
  42       -6.210567     -6.196372
  43       -5.943059     -5.937688
  44       -5.805693     -5.793978
  45       -5.589131     -5.577247
  46       -5.500617     -5.483413
  47       -5.395026     -5.365208
  48       -5.332658     -5.330697
  49       -5.169494     -5.168370
  50       -5.052691     -5.037088
  51       -4.997810     -4.992064
  52       -4.869142     -4.866144
  53       -4.845785     -4.842701
  54       -4.424562     -4.424222
  55       -4.316830     -4.312355
  56       -4.161325     -4.150352
  57       -3.932357     -3.917247
  58       -3.881550     -3.862091
  59       -3.689687     -3.684972
  60       -3.395140     -3.380740
  61       -3.291004     -3.259333
  62       -2.862147     -2.721534
  63       -2.634946     -2.518609
  64       -2.383488     -2.327964
  65       -2.132377     -2.095919
  66       -1.850596     -1.804329
  67       -1.165183     -1.153006
  68       -0.709650     -0.698360
  69       -0.436589     -0.424025
  70       -0.207956     -0.159131
  71        0.247072      0.261074
  72        0.540076      0.592498
  73        0.782044      0.824239
  74        0.997949      1.031455
  75        1.063257      1.093485
  76        1.250202      1.281819
  77        1.328372      1.340655
  78        1.406595      1.417019
  79        1.511083      1.527105
  80        1.606374      1.629389
  81        1.655772      1.679459
  82        1.705004      1.757782
