 vasp.5.3.3 18Dez12 (build Aug 26 2015 16:06:49) complex                        
  
 executed on             LinuxIFC date 2020.04.21  16:35:13
 running on    4 total cores
 distrk:  each k-point on    4 cores,    1 groups
 distr:  one band on NCORES_PER_BAND=   4 cores,    1 groups


--------------------------------------------------------------------------------------------------------


 INCAR:
 POTCAR:    PAW_PBE B 06Sep2000                   
 POTCAR:    PAW_PBE Al 04Jan2001                  
 POTCAR:    PAW_PBE B 06Sep2000                   
   SHA256 =  a32ced30f5ae56fd4d10b4325ff17eb3e4e38ee0f4288bc219fb012fddfa6e97 B/
   COPYR  = (c) Copyright 06Sep2000 Georg Kresse                                
   COPYR  = This file is part of the software VASP. Any use, copying, and all ot
   COPYR  = If you do not have a valid VASP license, you may not use, copy or di
   VRHFIN =B: s2p1                                                              
   LEXCH  = PE                                                                  
   EATOM  =    71.1703 eV,    5.2309 Ry                                         
                                                                                
   TITEL  = PAW_PBE B 06Sep2000                                                 
   LULTRA =        F    use ultrasoft PP ?                                      
   IUNSCR =        1    unscreen: 0-lin 1-nonlin 2-no                           
   RPACOR =    1.200    partial core radius                                     
   POMASS =   10.811; ZVAL   =    3.000    mass and valenz                      
   RCORE  =    1.700    outmost cutoff radius                                   
   RWIGS  =    1.710; RWIGS  =    0.905    wigner-seitz radius (au A)           
   ENMAX  =  318.614; ENMIN  =  238.960 eV                                      
   ICORE  =        2    local potential                                         
   LCOR   =        T    correct aug charges                                     
   LPAW   =        T    paw PP                                                  
   EAUG   =  535.514                                                            
   DEXC   =    0.000                                                            
   RMAX   =    1.732    core radius for proj-oper                               
   RAUG   =    1.300    factor for augmentation sphere                          
   RDEP   =    1.757    radius for radial grids                                 
   RDEPT  =    1.436    core radius for aug-charge                              
                                                                                
   Atomic configuration                                                         
    4 entries                                                                   
     n  l   j            E        occ.                                          
     1  0  0.50      -180.5896   2.0000                                         
     2  0  0.50        -9.4431   2.0000                                         
     2  1  0.50        -3.6068   1.0000                                         
     3  2  1.50        -4.0817   0.0000                                         
   Description                                                                  
     l       E           TYP  RCUT    TYP  RCUT                                 
     0     -9.4430752     23  1.500                                             
     0      0.8675899     23  1.500                                             
     1     -3.6067955     23  1.700                                             
     1      6.1086146     23  1.700                                             
     2     -4.0817478      7  1.700                                             
  local pseudopotential read in
  partial core-charges read in
  partial kinetic energy density read in
  atomic valenz-charges read in
  non local Contribution for L=           0  read in
    real space projection operators read in
  non local Contribution for L=           0  read in
    real space projection operators read in
  non local Contribution for L=           1  read in
    real space projection operators read in
  non local Contribution for L=           1  read in
    real space projection operators read in
    PAW grid and wavefunctions read in
 
   number of l-projection  operators is LMAX  =           4
   number of lm-projection operators is LMMAX =           8
 
 POTCAR:    PAW_PBE Al 04Jan2001                  
   SHA256 =  17880443556af62b473fe41b62a467bd001ad55d2cabe504a3f22e34d4e9db96 Al
   COPYR  = (c) Copyright 04Jan2001 Georg Kresse                                
   COPYR  = This file is part of the software VASP. Any use, copying, and all ot
   COPYR  = If you do not have a valid VASP license, you may not use, copy or di
   VRHFIN =Al: s2p1                                                             
   LEXCH  = PE                                                                  
   EATOM  =    53.5387 eV,    3.9350 Ry                                         
                                                                                
   TITEL  = PAW_PBE Al 04Jan2001                                                
   LULTRA =        F    use ultrasoft PP ?                                      
   IUNSCR =        1    unscreen: 0-lin 1-nonlin 2-no                           
   RPACOR =    1.500    partial core radius                                     
   POMASS =   26.981; ZVAL   =    3.000    mass and valenz                      
   RCORE  =    1.900    outmost cutoff radius                                   
   RWIGS  =    2.650; RWIGS  =    1.402    wigner-seitz radius (au A)           
   ENMAX  =  240.300; ENMIN  =  180.225 eV                                      
   ICORE  =        2    local potential                                         
   LCOR   =        T    correct aug charges                                     
   LPAW   =        T    paw PP                                                  
   EAUG   =  291.052                                                            
   DEXC   =    0.000                                                            
   RMAX   =    1.939    core radius for proj-oper                               
   RAUG   =    1.300    factor for augmentation sphere                          
   RDEP   =    1.966    radius for radial grids                                 
   RDEPT  =    1.856    core radius for aug-charge                              
                                                                                
   Atomic configuration                                                         
    6 entries                                                                   
     n  l   j            E        occ.                                          
     1  0  0.50     -1511.1048   2.0000                                         
     2  0  0.50      -108.1629   2.0000                                         
     2  1  1.50       -69.6402   6.0000                                         
     3  0  0.50        -7.7528   2.0000                                         
     3  1  1.50        -2.7121   1.0000                                         
     3  2  2.50        -2.7212   0.0000                                         
   Description                                                                  
     l       E           TYP  RCUT    TYP  RCUT                                 
     0     -7.7528455     23  1.900                                             
     0     -3.3096929     23  1.900                                             
     1     -2.7120682     23  1.900                                             
     1     13.6058260     23  1.900                                             
     2     -2.7211652      7  1.900                                             
  local pseudopotential read in
  partial core-charges read in
  partial kinetic energy density read in
  atomic valenz-charges read in
  non local Contribution for L=           0  read in
    real space projection operators read in
  non local Contribution for L=           0  read in
    real space projection operators read in
  non local Contribution for L=           1  read in
    real space projection operators read in
  non local Contribution for L=           1  read in
    real space projection operators read in
    PAW grid and wavefunctions read in
 
   number of l-projection  operators is LMAX  =           4
   number of lm-projection operators is LMMAX =           8
 
 Optimization of the real space projectors (new method)

 maximal supplied QI-value         = 22.11
 optimisation between [QCUT,QGAM] = [ 11.28, 22.77] = [ 35.61,145.23] Ry 
 Optimized for a Real-space Cutoff    1.16 Angstroem

   l    n(q)    QCUT    max X(q) W(low)/X(q) W(high)/X(q)  e(spline) 
   0      8    11.276    53.033    0.48E-03    0.56E-03    0.11E-06
   0      8    11.276    34.740    0.48E-03    0.55E-03    0.11E-06
   1      7    11.276    30.949    0.26E-03    0.19E-04    0.19E-06
   1      7    11.276    19.518    0.24E-03    0.14E-04    0.18E-06
 Optimization of the real space projectors (new method)

 maximal supplied QI-value         = 19.84
 optimisation between [QCUT,QGAM] = [ 11.31, 22.82] = [ 35.82,145.81] Ry 
 Optimized for a Real-space Cutoff    1.07 Angstroem

   l    n(q)    QCUT    max X(q) W(low)/X(q) W(high)/X(q)  e(spline) 
   0      7    11.310   176.870    0.43E-03    0.33E-03    0.78E-07
   0      7    11.310   105.762    0.41E-03    0.33E-03    0.76E-07
   1      7    11.310    55.370    0.40E-03    0.29E-03    0.65E-07
   1      7    11.310    20.208    0.38E-03    0.25E-03    0.60E-07
  PAW_PBE B 06Sep2000                   :
 energy of atom  1       EATOM=  -71.1703
 kinetic energy error for atom=    0.0012 (will be added to EATOM!!)
  PAW_PBE Al 04Jan2001                  :
 energy of atom  2       EATOM=  -53.5387
 kinetic energy error for atom=    0.0003 (will be added to EATOM!!)
 
 
 POSCAR: AdsorptionEnergy                        
  positions in direct lattice
  No initial velocities read in
 exchange correlation table for  LEXCH =        8
   RHO(1)=    0.500       N(1)  =     2000
   RHO(2)=  100.500       N(2)  =     4000
 


--------------------------------------------------------------------------------------------------------


 ion  position               nearest neighbor table
   1  0.998  0.000  0.000-  23 1.65  19 1.69   4 1.69   2 1.71
   2  0.167  0.000  0.000-   3 1.71   1 1.71   5 1.71  20 1.71  19 1.71   4 1.71
   3  0.335  0.000  0.000-  21 1.65  20 1.69   5 1.69   2 1.71  41 2.62
   4  0.080  0.125  0.000-   1 1.69   6 1.69   2 1.71   7 1.71   5 1.76
   5  0.253  0.125  0.000-   3 1.69   8 1.69   7 1.71   2 1.71   4 1.76  41 2.60
   6  0.998  0.250  0.000-  28 1.65   9 1.69   4 1.69   7 1.71
   7  0.167  0.250  0.000-   8 1.71   6 1.71   5 1.71  10 1.71   9 1.71   4 1.71
   8  0.335  0.250  0.000-  26 1.65  10 1.69   5 1.69   7 1.71  41 2.62
   9  0.080  0.375  0.000-   6 1.69  11 1.69   7 1.71  12 1.71  10 1.76
  10  0.253  0.375  0.000-   8 1.69  13 1.69  12 1.71   7 1.71   9 1.76
  11  0.998  0.500  0.000-  33 1.65  14 1.69   9 1.69  12 1.71
  12  0.167  0.500  0.000-  13 1.71  11 1.71  10 1.71  15 1.71  14 1.71   9 1.71
  13  0.335  0.500  0.000-  31 1.65  15 1.69  10 1.69  12 1.71
  14  0.080  0.625  0.000-  11 1.69  16 1.69  12 1.71  17 1.71  15 1.76
  15  0.253  0.625  0.000-  13 1.69  18 1.69  17 1.71  12 1.71  14 1.76
  16  0.998  0.750  0.000-  38 1.65  19 1.69  14 1.69  17 1.71
  17  0.167  0.750  0.000-  18 1.71  16 1.71  15 1.71  20 1.71  19 1.71  14 1.71
  18  0.335  0.750  0.000-  36 1.65  20 1.69  15 1.69  17 1.71
  19  0.080  0.875  0.000-   1 1.69  16 1.69   2 1.71  17 1.71  20 1.76
  20  0.253  0.875  0.000-   3 1.69  18 1.69  17 1.71   2 1.71  19 1.76
  21  0.498  0.000  0.000-   3 1.65  24 1.69  39 1.69  22 1.71  41 2.62
  22  0.667  0.000  0.000-  23 1.71  21 1.71  25 1.71  40 1.71  39 1.71  24 1.71
  23  0.835  0.000  0.000-   1 1.65  25 1.69  40 1.69  22 1.71
  24  0.580  0.125  0.000-  21 1.69  26 1.69  22 1.71  27 1.71  25 1.76  41 2.60
  25  0.753  0.125  0.000-  23 1.69  28 1.69  27 1.71  22 1.71  24 1.76
  26  0.498  0.250  0.000-   8 1.65  24 1.69  29 1.69  27 1.71  41 2.62
  27  0.667  0.250  0.000-  28 1.71  26 1.71  25 1.71  30 1.71  29 1.71  24 1.71
  28  0.835  0.250  0.000-   6 1.65  25 1.69  30 1.69  27 1.71
  29  0.580  0.375  0.000-  26 1.69  31 1.69  27 1.71  32 1.71  30 1.76
  30  0.753  0.375  0.000-  28 1.69  33 1.69  32 1.71  27 1.71  29 1.76
  31  0.498  0.500  0.000-  13 1.65  29 1.69  34 1.69  32 1.71
  32  0.667  0.500  0.000-  33 1.71  31 1.71  30 1.71  35 1.71  34 1.71  29 1.71
  33  0.835  0.500  0.000-  11 1.65  30 1.69  35 1.69  32 1.71
  34  0.580  0.625  0.000-  31 1.69  36 1.69  32 1.71  37 1.71  35 1.76
  35  0.753  0.625  0.000-  33 1.69  38 1.69  37 1.71  32 1.71  34 1.76
  36  0.498  0.750  0.000-  18 1.65  34 1.69  39 1.69  37 1.71
  37  0.667  0.750  0.000-  38 1.71  36 1.71  35 1.71  40 1.71  39 1.71  34 1.71
  38  0.835  0.750  0.000-  16 1.65  35 1.69  40 1.69  37 1.71
  39  0.580  0.875  0.000-  21 1.69  36 1.69  22 1.71  37 1.71  40 1.76
  40  0.753  0.875  0.000-  23 1.69  38 1.69  37 1.71  22 1.71  39 1.76
  41  0.417  0.125  0.133-  24 2.60   5 2.60  21 2.62  26 2.62   8 2.62   3 2.62
 
  LATTYP: Found a simple orthorhombic cell.
 ALAT       =    10.1600000000
 B/A-ratio  =     1.1574803150
 C/A-ratio  =     1.4763779528
  
  Lattice vectors:
  
 A1 = (  10.1600000000,   0.0000000000,   0.0000000000)
 A2 = (   0.0000000000,  11.7600000000,   0.0000000000)
 A3 = (   0.0000000000,   0.0000000000,  15.0000000000)


Analysis of symmetry for initial positions (statically):
=====================================================================
 Subroutine PRICEL returns:
 Original cell was already a primitive cell.
 

 Routine SETGRP: Setting up the symmetry group for a 
 simple orthorhombic supercell.


 Subroutine GETGRP returns: Found  2 space group operations
 (whereof  1 operations were pure point group operations)
 out of a pool of  8 trial point group operations.


The static configuration has the point symmetry C_1 .
 The point group associated with its full space group is C_1h.


Analysis of symmetry for dynamics (positions and initial velocities):
=====================================================================
 Subroutine PRICEL returns:
 Original cell was already a primitive cell.
 

 Routine SETGRP: Setting up the symmetry group for a 
 simple orthorhombic supercell.


 Subroutine GETGRP returns: Found  2 space group operations
 (whereof  1 operations were pure point group operations)
 out of a pool of  8 trial point group operations.


The dynamic configuration has the point symmetry C_1 .
 The point group associated with its full space group is C_1h.


Analysis of magnetic symmetry:
=====================================================================

 Subroutine MAGSYM returns: Found  2 space group operations
 (whereof  1 operations were pure point group operations)
 out of a pool of  2 trial space group operations
 (whereof  1 operations were pure point group operations)
 and found also     1 'primitive' translations


The magnetic configuration has the point symmetry C_1 .
 The point group associated with its full space group is C_1h.


 irot  :   1
 --------------------------------------------------------------------
 isymop:   1   0   0
           0   1   0
           0   0   1

 gtrans:     0.0000000     0.0000000     0.0000000

 ptrans:     0.0000000     0.0000000     0.0000000
 rotmap:
 (   1->   1)  (   2->   2)  (   3->   3)  (   4->   4)  (   5->   5) 
 (   6->   6)  (   7->   7)  (   8->   8)  (   9->   9)  (  10->  10) 
 (  11->  11)  (  12->  12)  (  13->  13)  (  14->  14)  (  15->  15) 
 (  16->  16)  (  17->  17)  (  18->  18)  (  19->  19)  (  20->  20) 
 (  21->  21)  (  22->  22)  (  23->  23)  (  24->  24)  (  25->  25) 
 (  26->  26)  (  27->  27)  (  28->  28)  (  29->  29)  (  30->  30) 
 (  31->  31)  (  32->  32)  (  33->  33)  (  34->  34)  (  35->  35) 
 (  36->  36)  (  37->  37)  (  38->  38)  (  39->  39)  (  40->  40) 
 (  41->  41) 


 irot  :   2
 --------------------------------------------------------------------
 isymop:   1   0   0
           0  -1   0
           0   0   1

 gtrans:     0.0000000     0.2500000     0.0000000

 ptrans:     0.0000000     0.0000000     0.0000000
 rotmap:
 (   1->   6)  (   2->   7)  (   3->   8)  (   4->   4)  (   5->   5) 
 (   6->   1)  (   7->   2)  (   8->   3)  (   9->  19)  (  10->  20) 
 (  11->  16)  (  12->  17)  (  13->  18)  (  14->  14)  (  15->  15) 
 (  16->  11)  (  17->  12)  (  18->  13)  (  19->   9)  (  20->  10) 
 (  21->  26)  (  22->  27)  (  23->  28)  (  24->  24)  (  25->  25) 
 (  26->  21)  (  27->  22)  (  28->  23)  (  29->  39)  (  30->  40) 
 (  31->  36)  (  32->  37)  (  33->  38)  (  34->  34)  (  35->  35) 
 (  36->  31)  (  37->  32)  (  38->  33)  (  39->  29)  (  40->  30) 
 (  41->  41) 
 
 
 KPOINTS: K-Points                                

Automatic generation of k-mesh.
Space group operators:
 irot       det(A)        alpha          n_x          n_y          n_z        tau_x        tau_y        tau_z
    1     1.000000     0.000000     1.000000     0.000000     0.000000     0.000000     0.000000     0.000000
    2    -1.000000   180.000000     0.000000     1.000000     0.000000     0.000000     0.250000     0.000000
 
 Subroutine IBZKPT returns following result:
 ===========================================
 
 Found      6 irreducible k-points:
 
 Following reciprocal coordinates:
            Coordinates               Weight
  0.000000  0.000000  0.250000      2.000000
  0.333333  0.000000  0.250000      2.000000
 -0.333333  0.000000  0.250000      2.000000
  0.000000  0.333333  0.250000      4.000000
  0.333333  0.333333  0.250000      4.000000
 -0.333333  0.333333  0.250000      4.000000
 
 Following cartesian coordinates:
            Coordinates               Weight
  0.000000  0.000000  0.016667      2.000000
  0.032808  0.000000  0.016667      2.000000
 -0.032808  0.000000  0.016667      2.000000
  0.000000  0.028345  0.016667      4.000000
  0.032808  0.028345  0.016667      4.000000
 -0.032808  0.028345  0.016667      4.000000
 


--------------------------------------------------------------------------------------------------------




 Dimension of arrays:
   k-points           NKPTS =      6   k-points in BZ     NKDIM =      6   number of bands    NBANDS=     82
   number of dos      NEDOS =    301   number of ions     NIONS =     41
   non local maximal  LDIM  =      4   non local SUM 2l+1 LMDIM =      8
   total plane-waves  NPLWV = 301056
   max r-space proj   IRMAX =   1159   max aug-charges    IRDMAX=   6736
   dimension x,y,z NGX =    56 NGY =   64 NGZ =   84
   dimension x,y,z NGXF=   112 NGYF=  128 NGZF=  168
   support grid    NGXF=   112 NGYF=  128 NGZF=  168
   ions per type =              40   1
 NGX,Y,Z   is equivalent  to a cutoff of   9.16,  9.05,  9.31 a.u.
 NGXF,Y,Z  is equivalent  to a cutoff of  18.33, 18.09, 18.62 a.u.


 I would recommend the setting:
   dimension x,y,z NGX =    56 NGY =   64 NGZ =   82
 SYSTEM =  Beta12Borophene !The name of the system 
 POSCAR =  AdsorptionEnergy                        

 Startparameter for this run:
   NWRITE =      2    write-flag & timer
   PREC   = normal    normal or accurate (medium, high low for compatibility)
   ISTART =      0    job   : 0-new  1-cont  2-samecut
   ICHARG =      2    charge: 1-file 2-atom 10-const
   ISPIN  =      2    spin polarized calculation?
   LNONCOLLINEAR =      F non collinear calculations
   LSORBIT =      F    spin-orbit coupling
   INIWAV =      1    electr: 0-lowe 1-rand  2-diag
   LASPH  =      F    aspherical Exc in radial PAW
   METAGGA=      F    non-selfconsistent MetaGGA calc.

 Electronic Relaxation 1
   ENCUT  =  500.0 eV  36.75 Ry    6.06 a.u.  18.52 21.44 27.35*2*pi/ulx,y,z
   ENINI  =  500.0     initial cutoff
   ENAUG  =  535.5 eV  augmentation charge cutoff
   NELM   =     60;   NELMIN=  2; NELMDL= -5     # of ELM steps 
   EDIFF  = 0.1E-03   stopping-criterion for ELM
   LREAL  =      T    real-space projection
   NLSPLINE    = F    spline interpolate recip. space projectors
   LCOMPAT=      F    compatible to vasp.4.4
   GGA_COMPAT  = T    GGA compatible to vasp.4.4-vasp.4.6
   LMAXPAW     = -100 max onsite density
   LMAXMIX     =    2 max onsite mixed and CHGCAR
   VOSKOWN=      0    Vosko Wilk Nusair interpolation
   ROPT   =   -0.00050  -0.00050
 Ionic relaxation
   EDIFFG = -.1E-01   stopping-criterion for IOM
   NSW    =   1000    number of steps for IOM
   NBLOCK =      1;   KBLOCK =   1000    inner block; outer block 
   IBRION =      2    ionic relax: 0-MD 1-quasi-New 2-CG
   NFREE  =      1    steps in history (QN), initial steepest desc. (CG)
   ISIF   =      2    stress and relaxation
   IWAVPR =     11    prediction:  0-non 1-charg 2-wave 3-comb
   ISYM   =      2    0-nonsym 1-usesym 2-fastsym
   LCORR  =      T    Harris-Foulkes like correction to forces

   POTIM  = 0.5000    time-step for ionic-motion
   TEIN   =    0.0    initial temperature
   TEBEG  =    0.0;   TEEND  =   0.0 temperature during run
   SMASS  =  -3.00    Nose mass-parameter (am)
   estimated Nose-frequenzy (Omega)   =  0.10E-29 period in steps =****** mass=  -0.236E-26a.u.
   SCALEE = 1.0000    scale energy and forces
   NPACO  =    256;   APACO  = 16.0  distance and # of slots for P.C.
   PSTRESS=    0.0 pullay stress

  Mass of Ions in am
   POMASS =  10.81 26.98
  Ionic Valenz
   ZVAL   =   3.00  3.00
  Atomic Wigner-Seitz radii
   RWIGS  =  -1.00 -1.00
  virtual crystal weights 
   VCA    =   1.00  1.00
   NELECT =     123.0000    total number of electrons
   NUPDOWN=      -1.0000    fix difference up-down

 DOS related values:
   EMIN   =  10.00;   EMAX   =-10.00  energy-range for DOS
   EFERMI =   0.00
   ISMEAR =     1;   SIGMA  =   0.10  broadening in eV -4-tet -1-fermi 0-gaus

 Electronic relaxation 2 (details)
   IALGO  =     38    algorithm
   LDIAG  =      T    sub-space diagonalisation (order eigenvalues)
   LSUBROT=      T    optimize rotation matrix (better conditioning)
   TURBO    =      0    0=normal 1=particle mesh
   IRESTART =      0    0=no restart 2=restart with 2 vectors
   NREBOOT  =      0    no. of reboots
   NMIN     =      0    reboot dimension
   EREF     =   0.00    reference energy to select bands
   IMIX   =      4    mixing-type and parameters
     AMIX     =   0.40;   BMIX     =  1.00
     AMIX_MAG =   1.60;   BMIX_MAG =  1.00
     AMIN     =   0.10
     WC   =   100.;   INIMIX=   1;  MIXPRE=   1;  MAXMIX= -45

 Intra band minimization:
   WEIMIN = 0.0010     energy-eigenvalue tresh-hold
   EBREAK =  0.30E-06  absolut break condition
   DEPER  =   0.30     relativ break condition  

   TIME   =   0.40     timestep for ELM

  volume/ion in A,a.u.               =      43.71       294.99
  Fermi-wavevector in a.u.,A,eV,Ry     =   0.670264  1.266615  6.112466  0.449254
  Thomas-Fermi vector in A             =   1.745729
 
 Write flags
   LWAVE  =      F    write WAVECAR
   LCHARG =      F    write CHGCAR
   LVTOT  =      F    write LOCPOT, total local potential
   LVHAR  =      F    write LOCPOT, Hartree potential only
   LELF   =      F    write electronic localiz. function (ELF)
   LORBIT =      0    0 simple, 1 ext, 2 COOP (PROOUT)


 Dipole corrections
   LMONO  =      F    monopole corrections only (constant potential shift)
   LDIPOL =      T    correct potential (dipole corrections)
   IDIPOL =      3    1-x, 2-y, 3-z, 4-all directions 
   EPSILON=  1.0000000 bulk dielectric constant

 Exchange correlation treatment:
   GGA     =    PE    GGA type
   LEXCH   =     8    internal setting for exchange type
   VOSKOWN=      0    Vosko Wilk Nusair interpolation
   LHFCALC =     F    Hartree Fock is set to
   LHFONE  =     F    Hartree Fock one center treatment
   AEXX    =    0.0000 exact exchange contribution

 Linear response parameters
   LEPSILON=     F    determine dielectric tensor
   LRPA    =     F    only Hartree local field effects (RPA)
   LNABLA  =     F    use nabla operator in PAW spheres
   LVEL    =     F    velocity operator in full k-point grid
   LINTERFAST=   F  fast interpolation
   KINTER  =     0    interpolate to denser k-point grid
   CSHIFT  =0.1000    complex shift for real part using Kramers Kronig
   OMEGAMAX=  -1.0    maximum frequency
   DEG_THRESHOLD= 0.2000000E-02 threshold for treating states as degnerate
   RTIME   =    0.100 relaxation time in fs

 Orbital magnetization related:
   ORBITALMAG=     F  switch on orbital magnetization
   LCHIMAG   =     F  perturbation theory with respect to B field
   DQ        =  0.001000  dq finite difference perturbation B field



--------------------------------------------------------------------------------------------------------


 conjugate gradient relaxation of ions
 charge density and potential will be updated during run
 spin polarized calculation
 Variant of blocked Davidson
 Davidson routine will perform the subspace rotation
 perform sub-space diagonalisation
    after iterative eigenvector-optimisation
 modified Broyden-mixing scheme, WC =      100.0
 initial mixing is a Kerker type mixing with AMIX =  0.4000 and BMIX =      1.0000
 Hartree-type preconditioning will be used
 using additional bands           20
 real space projection scheme for non local part
 use partial core corrections
 calculate Harris-corrections to forces 
   (improved forces if not selfconsistent)
 use gradient corrections 
 use of overlap-Matrix (Vanderbilt PP)
 Methfessel and Paxton  Order N= 1 SIGMA  =   0.10


--------------------------------------------------------------------------------------------------------


  energy-cutoff  :      500.00
  volume of cell :     1792.22
      direct lattice vectors                 reciprocal lattice vectors
    10.160000000  0.000000000  0.000000000     0.098425197  0.000000000  0.000000000
     0.000000000 11.760000000  0.000000000     0.000000000  0.085034014  0.000000000
     0.000000000  0.000000000 15.000000000     0.000000000  0.000000000  0.066666667

  length of vectors
    10.160000000 11.760000000 15.000000000     0.098425197  0.085034014  0.066666667


 
 k-points in units of 2pi/SCALE and weight: K-Points                                
   0.00000000  0.00000000  0.01666667       0.111
   0.03280840  0.00000000  0.01666667       0.111
  -0.03280840  0.00000000  0.01666667       0.111
   0.00000000  0.02834467  0.01666667       0.222
   0.03280840  0.02834467  0.01666667       0.222
  -0.03280840  0.02834467  0.01666667       0.222
 
 k-points in reciprocal lattice and weights: K-Points                                
   0.00000000  0.00000000  0.25000000       0.111
   0.33333333  0.00000000  0.25000000       0.111
  -0.33333333  0.00000000  0.25000000       0.111
   0.00000000  0.33333333  0.25000000       0.222
   0.33333333  0.33333333  0.25000000       0.222
  -0.33333333  0.33333333  0.25000000       0.222
 
 position of ions in fractional coordinates (direct lattice) 
   0.99811000  0.00000000  0.00000000
   0.16667000  0.00000000  0.00000000
   0.33522000  0.00000000  0.00000000
   0.08000000  0.12500000  0.00000000
   0.25334000  0.12500000  0.00000000
   0.99811000  0.25000000  0.00000000
   0.16667000  0.25000000  0.00000000
   0.33522000  0.25000000  0.00000000
   0.08000000  0.37500000  0.00000000
   0.25334000  0.37500000  0.00000000
   0.99811000  0.50000000  0.00000000
   0.16667000  0.50000000  0.00000000
   0.33522000  0.50000000  0.00000000
   0.08000000  0.62500000  0.00000000
   0.25334000  0.62500000  0.00000000
   0.99811000  0.75000000  0.00000000
   0.16667000  0.75000000  0.00000000
   0.33522000  0.75000000  0.00000000
   0.08000000  0.87500000  0.00000000
   0.25334000  0.87500000  0.00000000
   0.49811000  0.00000000  0.00000000
   0.66667000  0.00000000  0.00000000
   0.83522000  0.00000000  0.00000000
   0.58000000  0.12500000  0.00000000
   0.75334000  0.12500000  0.00000000
   0.49811000  0.25000000  0.00000000
   0.66667000  0.25000000  0.00000000
   0.83522000  0.25000000  0.00000000
   0.58000000  0.37500000  0.00000000
   0.75334000  0.37500000  0.00000000
   0.49811000  0.50000000  0.00000000
   0.66667000  0.50000000  0.00000000
   0.83522000  0.50000000  0.00000000
   0.58000000  0.62500000  0.00000000
   0.75334000  0.62500000  0.00000000
   0.49811000  0.75000000  0.00000000
   0.66667000  0.75000000  0.00000000
   0.83522000  0.75000000  0.00000000
   0.58000000  0.87500000  0.00000000
   0.75334000  0.87500000  0.00000000
   0.41667000  0.12500000  0.13333000
 
 position of ions in cartesian coordinates  (Angst):
  10.14079760  0.00000000  0.00000000
   1.69336720  0.00000000  0.00000000
   3.40583520  0.00000000  0.00000000
   0.81280000  1.47000000  0.00000000
   2.57393440  1.47000000  0.00000000
  10.14079760  2.94000000  0.00000000
   1.69336720  2.94000000  0.00000000
   3.40583520  2.94000000  0.00000000
   0.81280000  4.41000000  0.00000000
   2.57393440  4.41000000  0.00000000
  10.14079760  5.88000000  0.00000000
   1.69336720  5.88000000  0.00000000
   3.40583520  5.88000000  0.00000000
   0.81280000  7.35000000  0.00000000
   2.57393440  7.35000000  0.00000000
  10.14079760  8.82000000  0.00000000
   1.69336720  8.82000000  0.00000000
   3.40583520  8.82000000  0.00000000
   0.81280000 10.29000000  0.00000000
   2.57393440 10.29000000  0.00000000
   5.06079760  0.00000000  0.00000000
   6.77336720  0.00000000  0.00000000
   8.48583520  0.00000000  0.00000000
   5.89280000  1.47000000  0.00000000
   7.65393440  1.47000000  0.00000000
   5.06079760  2.94000000  0.00000000
   6.77336720  2.94000000  0.00000000
   8.48583520  2.94000000  0.00000000
   5.89280000  4.41000000  0.00000000
   7.65393440  4.41000000  0.00000000
   5.06079760  5.88000000  0.00000000
   6.77336720  5.88000000  0.00000000
   8.48583520  5.88000000  0.00000000
   5.89280000  7.35000000  0.00000000
   7.65393440  7.35000000  0.00000000
   5.06079760  8.82000000  0.00000000
   6.77336720  8.82000000  0.00000000
   8.48583520  8.82000000  0.00000000
   5.89280000 10.29000000  0.00000000
   7.65393440 10.29000000  0.00000000
   4.23336720  1.47000000  1.99995000
 


--------------------------------------------------------------------------------------------------------


 k-point  1 :   0.0000 0.0000 0.2500  plane waves:   45501
 k-point  2 :   0.3333 0.0000 0.2500  plane waves:   45508
 k-point  3 :  -0.3333 0.0000 0.2500  plane waves:   45508
 k-point  4 :   0.0000 0.3333 0.2500  plane waves:   45494
 k-point  5 :   0.3333 0.3333 0.2500  plane waves:   45490
 k-point  6 :  -0.3333 0.3333 0.2500  plane waves:   45490

 maximum and minimum number of plane-waves per node :     11396    11341

 maximum number of plane-waves:     45508
 maximum index in each direction: 
   IXMAX=   18   IYMAX=   21   IZMAX=   27
   IXMIN=  -18   IYMIN=  -21   IZMIN=  -27

 WARNING: aliasing errors must be expected set NGX to  74 to avoid them
 WARNING: aliasing errors must be expected set NGY to  86 to avoid them
 WARNING: aliasing errors must be expected set NGZ to 110 to avoid them
 aliasing errors are usually negligible using standard VASP settings
 and one can safely disregard these warnings

 real space projection operators:
  total allocation   :       2743.12 KBytes
  max/ min on nodes  :        690.81        679.31


 parallel 3D FFT for wavefunctions:
    minimum data exchange during FFTs selected (reduces bandwidth)
 parallel 3D FFT for charge:
    minimum data exchange during FFTs selected (reduces bandwidth)


 total amount of memory used by VASP on root node   289588. kBytes
========================================================================

   base      :      30000. kBytes
   nonlr-proj:       1613. kBytes
   fftplans  :      22742. kBytes
   grid      :      54677. kBytes
   one-center:         67. kBytes
   wavefun   :     180489. kBytes
 
 Broyden mixing: mesh for mixing (old mesh)
   NGX = 37   NGY = 43   NGZ = 55
  (NGX  =112   NGY  =128   NGZ  =168)
  gives a total of  87505 points

 initial charge density was supplied:
 charge density of overlapping atoms calculated
 number of electron     123.0000000 magnetization       0.0000000
 keeping initial charge density in first step


--------------------------------------------------------------------------------------------------------


 Maximum index for non-local projection operator          279
 Maximum index for augmentation-charges         1592 (set IRDMAX)


--------------------------------------------------------------------------------------------------------


 First call to EWALD:  gamma=   0.146
 Maximum number of real-space cells 3x 3x 2
 Maximum number of reciprocal cells 2x 3x 3

 FEWALD executed in parallel
    FEWALD:  cpu time    0.00: real time    0.00


----------------------------------------- Iteration    1(   1)  ---------------------------------------


    POTLOK:  cpu time    1.04: real time    1.04
    SETDIJ:  cpu time    0.05: real time    0.05
     EDDAV:  cpu time   20.58: real time   20.58
       DOS:  cpu time    0.00: real time    0.00
    --------------------------------------------
      LOOP:  cpu time   21.68: real time   21.68

 eigenvalue-minimisations  :  2040
 total energy-change (2. order) : 0.8708389E+03  (-0.4043311E+04)
 number of electron     123.0000000 magnetization       0.0000000
 augmentation part      123.0000000 magnetization       0.0000000

 DIPCOR: dipole corrections for dipol
 direction  3 min pos    89,
 dipolmoment           0.000000      0.000000     -0.000482 electrons x Angstroem
 Tr[quadrupol]     -2513.384593

 energy correction for charged system         0.000000 eV
 dipol+quadrupol energy correction           -0.000000 eV
 added-field ion interaction         -0.001871 eV  (added to PSCEN)


 Free energy of the ion-electron system (eV)
  ---------------------------------------------------
  alpha Z        PSCENC =        62.87322048
  Ewald energy   TEWEN  =      8136.43039434
  -1/2 Hartree   DENC   =    -10052.43811407
  -exchange  EXHF       =         0.00000000
  -V(xc)+E(xc)   XCENC  =       243.62999241
  PAW double counting   =      1806.19477735    -1740.02744309
  entropy T*S    EENTRO =         0.00489636
  eigenvalues    EBANDS =      -486.13187795
  atomic energy  EATOM  =      2900.30308171
  ---------------------------------------------------
  free energy    TOTEN  =       870.83892753 eV

  energy without entropy =      870.83403117  energy(sigma->0) =      870.83729541


--------------------------------------------------------------------------------------------------------




----------------------------------------- Iteration    1(   2)  ---------------------------------------


     EDDAV:  cpu time   26.55: real time   26.55
       DOS:  cpu time    0.00: real time    0.00
    --------------------------------------------
      LOOP:  cpu time   26.56: real time   26.56

 eigenvalue-minimisations  :  2816
 total energy-change (2. order) :-0.1013608E+04  (-0.9768409E+03)
 number of electron     123.0000000 magnetization       0.0000000
 augmentation part      123.0000000 magnetization       0.0000000

 DIPCOR: dipole corrections for dipol
 direction  3 min pos    89,
 dipolmoment           0.000000      0.000000     -0.000482 electrons x Angstroem
 Tr[quadrupol]     -2513.384593

 energy correction for charged system         0.000000 eV
 dipol+quadrupol energy correction           -0.000000 eV
 added-field ion interaction         -0.001871 eV  (added to PSCEN)


 Free energy of the ion-electron system (eV)
  ---------------------------------------------------
  alpha Z        PSCENC =        62.87322048
  Ewald energy   TEWEN  =      8136.43039434
  -1/2 Hartree   DENC   =    -10052.43811407
  -exchange  EXHF       =         0.00000000
  -V(xc)+E(xc)   XCENC  =       243.62999241
  PAW double counting   =      1806.19477735    -1740.02744309
  entropy T*S    EENTRO =        -0.00622463
  eigenvalues    EBANDS =     -1499.72884049
  atomic energy  EATOM  =      2900.30308171
  ---------------------------------------------------
  free energy    TOTEN  =      -142.76915600 eV

  energy without entropy =     -142.76293137  energy(sigma->0) =     -142.76708112


--------------------------------------------------------------------------------------------------------




----------------------------------------- Iteration    1(   3)  ---------------------------------------


     EDDAV:  cpu time   22.66: real time   22.66
       DOS:  cpu time    0.00: real time    0.00
    --------------------------------------------
      LOOP:  cpu time   22.66: real time   22.67

 eigenvalue-minimisations  :  2312
 total energy-change (2. order) :-0.1365282E+03  (-0.1350390E+03)
 number of electron     123.0000000 magnetization       0.0000000
 augmentation part      123.0000000 magnetization       0.0000000

 DIPCOR: dipole corrections for dipol
 direction  3 min pos    89,
 dipolmoment           0.000000      0.000000     -0.000482 electrons x Angstroem
 Tr[quadrupol]     -2513.384593

 energy correction for charged system         0.000000 eV
 dipol+quadrupol energy correction           -0.000000 eV
 added-field ion interaction         -0.001871 eV  (added to PSCEN)


 Free energy of the ion-electron system (eV)
  ---------------------------------------------------
  alpha Z        PSCENC =        62.87322048
  Ewald energy   TEWEN  =      8136.43039434
  -1/2 Hartree   DENC   =    -10052.43811407
  -exchange  EXHF       =         0.00000000
  -V(xc)+E(xc)   XCENC  =       243.62999241
  PAW double counting   =      1806.19477735    -1740.02744309
  entropy T*S    EENTRO =         0.00393421
  eigenvalues    EBANDS =     -1636.26723126
  atomic energy  EATOM  =      2900.30308171
  ---------------------------------------------------
  free energy    TOTEN  =      -279.29738793 eV

  energy without entropy =     -279.30132214  energy(sigma->0) =     -279.29869934


--------------------------------------------------------------------------------------------------------




----------------------------------------- Iteration    1(   4)  ---------------------------------------


     EDDAV:  cpu time   25.38: real time   25.38
       DOS:  cpu time    0.00: real time    0.00
    --------------------------------------------
      LOOP:  cpu time   25.38: real time   25.39

 eigenvalue-minimisations  :  2664
 total energy-change (2. order) :-0.4589377E+01  (-0.4561273E+01)
 number of electron     123.0000000 magnetization       0.0000000
 augmentation part      123.0000000 magnetization       0.0000000

 DIPCOR: dipole corrections for dipol
 direction  3 min pos    89,
 dipolmoment           0.000000      0.000000     -0.000482 electrons x Angstroem
 Tr[quadrupol]     -2513.384593

 energy correction for charged system         0.000000 eV
 dipol+quadrupol energy correction           -0.000000 eV
 added-field ion interaction         -0.001871 eV  (added to PSCEN)


 Free energy of the ion-electron system (eV)
  ---------------------------------------------------
  alpha Z        PSCENC =        62.87322048
  Ewald energy   TEWEN  =      8136.43039434
  -1/2 Hartree   DENC   =    -10052.43811407
  -exchange  EXHF       =         0.00000000
  -V(xc)+E(xc)   XCENC  =       243.62999241
  PAW double counting   =      1806.19477735    -1740.02744309
  entropy T*S    EENTRO =         0.00360293
  eigenvalues    EBANDS =     -1640.85627703
  atomic energy  EATOM  =      2900.30308171
  ---------------------------------------------------
  free energy    TOTEN  =      -283.88676498 eV

  energy without entropy =     -283.89036790  energy(sigma->0) =     -283.88796595


--------------------------------------------------------------------------------------------------------




----------------------------------------- Iteration    1(   5)  ---------------------------------------


     EDDAV:  cpu time   26.12: real time   26.12
       DOS:  cpu time    0.00: real time    0.00
    CHARGE:  cpu time    1.32: real time    1.32
    MIXING:  cpu time    0.02: real time    0.02
    --------------------------------------------
      LOOP:  cpu time   27.46: real time   27.46

 eigenvalue-minimisations  :  2776
 total energy-change (2. order) :-0.1301308E+00  (-0.1297785E+00)
 number of electron     123.0000014 magnetization      -0.0000075
 augmentation part       -0.1248138 magnetization       0.0001596

 DIPCOR: dipole corrections for dipol
 direction  3 min pos    89,
 dipolmoment           0.000000      0.000000     -0.000482 electrons x Angstroem
 Tr[quadrupol]     -2513.384593

 energy correction for charged system         0.000000 eV
 dipol+quadrupol energy correction           -0.000000 eV
 added-field ion interaction         -0.001871 eV  (added to PSCEN)


 Broyden mixing:
  rms(total) = 0.22366E+01    rms(broyden)= 0.22366E+01
  rms(prec ) = 0.27764E+01
  weight for this iteration     100.00

 Free energy of the ion-electron system (eV)
  ---------------------------------------------------
  alpha Z        PSCENC =        62.87322048
  Ewald energy   TEWEN  =      8136.43039434
  -1/2 Hartree   DENC   =    -10052.43811407
  -exchange  EXHF       =         0.00000000
  -V(xc)+E(xc)   XCENC  =       243.62999241
  PAW double counting   =      1806.19477735    -1740.02744309
  entropy T*S    EENTRO =         0.00338676
  eigenvalues    EBANDS =     -1640.98619168
  atomic energy  EATOM  =      2900.30308171
  ---------------------------------------------------
  free energy    TOTEN  =      -284.01689580 eV

  energy without entropy =     -284.02028255  energy(sigma->0) =     -284.01802471


--------------------------------------------------------------------------------------------------------




----------------------------------------- Iteration    1(   6)  ---------------------------------------


    POTLOK:  cpu time    1.06: real time    1.06
    SETDIJ:  cpu time    0.06: real time    0.06
     EDDAV:  cpu time   22.71: real time   22.72
       DOS:  cpu time    0.00: real time    0.00
    CHARGE:  cpu time    1.30: real time    1.30
    MIXING:  cpu time    0.02: real time    0.02
    --------------------------------------------
      LOOP:  cpu time   25.15: real time   25.15

 eigenvalue-minimisations  :  2320
 total energy-change (2. order) : 0.2178205E+02  (-0.1807950E+01)
 number of electron     123.0000017 magnetization       0.0017159
 augmentation part       -0.3163082 magnetization      -0.0022263

 DIPCOR: dipole corrections for dipol
 direction  3 min pos    91,
 dipolmoment           0.000000      0.000000     -0.399870 electrons x Angstroem
 Tr[quadrupol]     -2515.516448

 energy correction for charged system         0.000000 eV
 dipol+quadrupol energy correction           -0.008190 eV
 added-field ion interaction         -2.453275 eV  (added to PSCEN)


 Broyden mixing:
  rms(total) = 0.12780E+01    rms(broyden)= 0.12779E+01
  rms(prec ) = 0.15215E+01
  weight for this iteration     100.00

 eigenvalues of (default mixing * dielectric matrix)
  average eigenvalue GAMMA=   2.0895
  2.0895

 Free energy of the ion-electron system (eV)
  ---------------------------------------------------
  alpha Z        PSCENC =        60.41362705
  Ewald energy   TEWEN  =      8136.43039434
  -1/2 Hartree   DENC   =    -10219.57865979
  -exchange  EXHF       =         0.00000000
  -V(xc)+E(xc)   XCENC  =       248.77293084
  PAW double counting   =      4416.37738919    -4352.07756701
  entropy T*S    EENTRO =        -0.01378368
  eigenvalues    EBANDS =     -1452.86225536
  atomic energy  EATOM  =      2900.30308171
  ---------------------------------------------------
  free energy    TOTEN  =      -262.23484272 eV

  energy without entropy =     -262.22105904  energy(sigma->0) =     -262.23024816


--------------------------------------------------------------------------------------------------------




----------------------------------------- Iteration    1(   7)  ---------------------------------------


    POTLOK:  cpu time    1.05: real time    1.05
    SETDIJ:  cpu time    0.05: real time    0.05
     EDDAV:  cpu time   23.24: real time   23.24
       DOS:  cpu time    0.00: real time    0.00
    CHARGE:  cpu time    1.32: real time    1.32
    MIXING:  cpu time    0.02: real time    0.02
    --------------------------------------------
      LOOP:  cpu time   25.68: real time   25.69

 eigenvalue-minimisations  :  2400
 total energy-change (2. order) : 0.7745620E+01  (-0.1485631E+01)
 number of electron     123.0000018 magnetization       0.0030330
 augmentation part       -0.4264834 magnetization      -0.0018163

 DIPCOR: dipole corrections for dipol
 direction  3 min pos    92,
 dipolmoment           0.000000      0.000000     -0.459133 electrons x Angstroem
 Tr[quadrupol]     -2518.130187

 energy correction for charged system         0.000000 eV
 dipol+quadrupol energy correction           -0.010797 eV
 added-field ion interaction         -3.333367 eV  (added to PSCEN)


 Broyden mixing:
  rms(total) = 0.35891E+00    rms(broyden)= 0.35890E+00
  rms(prec ) = 0.45992E+00
  weight for this iteration     100.00

 eigenvalues of (default mixing * dielectric matrix)
  average eigenvalue GAMMA=   1.7611
  1.2718  2.2504

 Free energy of the ion-electron system (eV)
  ---------------------------------------------------
  alpha Z        PSCENC =        59.53092774
  Ewald energy   TEWEN  =      8136.43039434
  -1/2 Hartree   DENC   =    -10395.64124424
  -exchange  EXHF       =         0.00000000
  -V(xc)+E(xc)   XCENC  =       255.02192340
  PAW double counting   =      8740.79094775    -8678.05019791
  entropy T*S    EENTRO =        -0.00427882
  eigenvalues    EBANDS =     -1272.87077693
  atomic energy  EATOM  =      2900.30308171
  ---------------------------------------------------
  free energy    TOTEN  =      -254.48922296 eV

  energy without entropy =     -254.48494414  energy(sigma->0) =     -254.48779668


--------------------------------------------------------------------------------------------------------




----------------------------------------- Iteration    1(   8)  ---------------------------------------


    POTLOK:  cpu time    1.05: real time    1.05
    SETDIJ:  cpu time    0.05: real time    0.05
     EDDAV:  cpu time   23.32: real time   23.32
       DOS:  cpu time    0.00: real time    0.00
    CHARGE:  cpu time    1.35: real time    1.35
    MIXING:  cpu time    0.03: real time    0.03
    --------------------------------------------
      LOOP:  cpu time   25.81: real time   25.82

 eigenvalue-minimisations  :  2416
 total energy-change (2. order) : 0.6994779E+00  (-0.1633566E+00)
 number of electron     123.0000018 magnetization       0.0033407
 augmentation part       -0.4687426 magnetization      -0.0003281

 DIPCOR: dipole corrections for dipol
 direction  3 min pos    92,
 dipolmoment           0.000000      0.000000     -0.349751 electrons x Angstroem
 Tr[quadrupol]     -2519.813349

 energy correction for charged system         0.000000 eV
 dipol+quadrupol energy correction           -0.006265 eV
 added-field ion interaction         -2.539240 eV  (added to PSCEN)


 Broyden mixing:
  rms(total) = 0.12433E+00    rms(broyden)= 0.12433E+00
  rms(prec ) = 0.19568E+00
  weight for this iteration     100.00

 eigenvalues of (default mixing * dielectric matrix)
  average eigenvalue GAMMA=   1.6737
  0.9877  2.0167  2.0167

 Free energy of the ion-electron system (eV)
  ---------------------------------------------------
  alpha Z        PSCENC =        60.32958638
  Ewald energy   TEWEN  =      8136.43039434
  -1/2 Hartree   DENC   =    -10459.71754213
  -exchange  EXHF       =         0.00000000
  -V(xc)+E(xc)   XCENC  =       257.22391852
  PAW double counting   =     10495.31186161   -10432.79201141
  entropy T*S    EENTRO =        -0.01066380
  eigenvalues    EBANDS =     -1210.86837029
  atomic energy  EATOM  =      2900.30308171
  ---------------------------------------------------
  free energy    TOTEN  =      -253.78974509 eV

  energy without entropy =     -253.77908129  energy(sigma->0) =     -253.78619049


--------------------------------------------------------------------------------------------------------




----------------------------------------- Iteration    1(   9)  ---------------------------------------


    POTLOK:  cpu time    1.05: real time    1.05
    SETDIJ:  cpu time    0.05: real time    0.05
     EDDAV:  cpu time   23.19: real time   23.19
       DOS:  cpu time    0.00: real time    0.00
    CHARGE:  cpu time    1.29: real time    1.29
    MIXING:  cpu time    0.03: real time    0.03
    --------------------------------------------
      LOOP:  cpu time   25.62: real time   25.62

 eigenvalue-minimisations  :  2400
 total energy-change (2. order) : 0.9136735E-01  (-0.1372142E-01)
 number of electron     123.0000018 magnetization       0.0039551
 augmentation part       -0.4643838 magnetization      -0.0005404

 DIPCOR: dipole corrections for dipol
 direction  3 min pos    91,
 dipolmoment           0.000000      0.000000     -0.276748 electrons x Angstroem
 Tr[quadrupol]     -2521.064951

 energy correction for charged system         0.000000 eV
 dipol+quadrupol energy correction           -0.003923 eV
 added-field ion interaction         -1.697897 eV  (added to PSCEN)


 Broyden mixing:
  rms(total) = 0.55095E-01    rms(broyden)= 0.55095E-01
  rms(prec ) = 0.12565E+00
  weight for this iteration     100.00

 eigenvalues of (default mixing * dielectric matrix)
  average eigenvalue GAMMA=   1.6572
  2.4259  0.9259  1.9139  1.3632

 Free energy of the ion-electron system (eV)
  ---------------------------------------------------
  alpha Z        PSCENC =        61.17327150
  Ewald energy   TEWEN  =      8136.43039434
  -1/2 Hartree   DENC   =    -10480.79560683
  -exchange  EXHF       =         0.00000000
  -V(xc)+E(xc)   XCENC  =       257.63516230
  PAW double counting   =     10707.86464928   -10645.19697964
  entropy T*S    EENTRO =        -0.01185571
  eigenvalues    EBANDS =     -1191.10049469
  atomic energy  EATOM  =      2900.30308171
  ---------------------------------------------------
  free energy    TOTEN  =      -253.69837774 eV

  energy without entropy =     -253.68652204  energy(sigma->0) =     -253.69442584


--------------------------------------------------------------------------------------------------------




----------------------------------------- Iteration    1(  10)  ---------------------------------------


    POTLOK:  cpu time    1.06: real time    1.06
    SETDIJ:  cpu time    0.05: real time    0.05
     EDDAV:  cpu time   23.01: real time   23.01
       DOS:  cpu time    0.00: real time    0.00
    CHARGE:  cpu time    1.34: real time    1.34
    MIXING:  cpu time    0.02: real time    0.02
    --------------------------------------------
      LOOP:  cpu time   25.50: real time   25.50

 eigenvalue-minimisations  :  2376
 total energy-change (2. order) : 0.6941195E-01  (-0.8899877E-02)
 number of electron     123.0000018 magnetization       0.0040294
 augmentation part       -0.4736158 magnetization       0.0002159

 DIPCOR: dipole corrections for dipol
 direction  3 min pos    89,
 dipolmoment           0.000000      0.000000     -0.246958 electrons x Angstroem
 Tr[quadrupol]     -2522.706478

 energy correction for charged system         0.000000 eV
 dipol+quadrupol energy correction           -0.003124 eV
 added-field ion interaction         -0.959492 eV  (added to PSCEN)


 Broyden mixing:
  rms(total) = 0.43952E-01    rms(broyden)= 0.43951E-01
  rms(prec ) = 0.87766E-01
  weight for this iteration     100.00

 eigenvalues of (default mixing * dielectric matrix)
  average eigenvalue GAMMA=   1.5755
  2.4607  2.4607  1.1452  0.9055  0.9055

 Free energy of the ion-electron system (eV)
  ---------------------------------------------------
  alpha Z        PSCENC =        61.91247540
  Ewald energy   TEWEN  =      8136.43039434
  -1/2 Hartree   DENC   =    -10511.34021333
  -exchange  EXHF       =         0.00000000
  -V(xc)+E(xc)   XCENC  =       258.26957361
  PAW double counting   =     10913.36395596   -10850.64414358
  entropy T*S    EENTRO =        -0.01071305
  eigenvalues    EBANDS =     -1161.91337684
  atomic energy  EATOM  =      2900.30308171
  ---------------------------------------------------
  free energy    TOTEN  =      -253.62896579 eV

  energy without entropy =     -253.61825274  energy(sigma->0) =     -253.62539477


--------------------------------------------------------------------------------------------------------




----------------------------------------- Iteration    1(  11)  ---------------------------------------


    POTLOK:  cpu time    1.06: real time    1.06
    SETDIJ:  cpu time    0.05: real time    0.05
     EDDAV:  cpu time   22.41: real time   22.42
       DOS:  cpu time    0.00: real time    0.00
    CHARGE:  cpu time    1.28: real time    1.28
    MIXING:  cpu time    0.03: real time    0.03
    --------------------------------------------
      LOOP:  cpu time   24.84: real time   24.84

 eigenvalue-minimisations  :  2296
 total energy-change (2. order) : 0.1177218E-01  (-0.2811564E-02)
 number of electron     123.0000018 magnetization       0.0040360
 augmentation part       -0.4672878 magnetization       0.0003013

 DIPCOR: dipole corrections for dipol
 direction  3 min pos    88,
 dipolmoment           0.000000      0.000000     -0.204093 electrons x Angstroem
 Tr[quadrupol]     -2523.794242

 energy correction for charged system         0.000000 eV
 dipol+quadrupol energy correction           -0.002133 eV
 added-field ion interaction         -0.563356 eV  (added to PSCEN)


 Broyden mixing:
  rms(total) = 0.27502E-01    rms(broyden)= 0.27501E-01
  rms(prec ) = 0.65176E-01
  weight for this iteration     100.00

 eigenvalues of (default mixing * dielectric matrix)
  average eigenvalue GAMMA=   1.5839
  2.6412  2.6412  1.1875  1.1875  1.1659  0.6803

 Free energy of the ion-electron system (eV)
  ---------------------------------------------------
  alpha Z        PSCENC =        62.30960173
  Ewald energy   TEWEN  =      8136.43039434
  -1/2 Hartree   DENC   =    -10521.79012361
  -exchange  EXHF       =         0.00000000
  -V(xc)+E(xc)   XCENC  =       258.33619852
  PAW double counting   =     10779.05310843   -10716.25664473
  entropy T*S    EENTRO =        -0.01113673
  eigenvalues    EBANDS =     -1151.99167327
  atomic energy  EATOM  =      2900.30308171
  ---------------------------------------------------
  free energy    TOTEN  =      -253.61719362 eV

  energy without entropy =     -253.60605689  energy(sigma->0) =     -253.61348137


--------------------------------------------------------------------------------------------------------




----------------------------------------- Iteration    1(  12)  ---------------------------------------


    POTLOK:  cpu time    1.07: real time    1.07
    SETDIJ:  cpu time    0.05: real time    0.05
     EDDAV:  cpu time   22.61: real time   22.62
       DOS:  cpu time    0.00: real time    0.00
    CHARGE:  cpu time    1.34: real time    1.34
    MIXING:  cpu time    0.03: real time    0.03
    --------------------------------------------
      LOOP:  cpu time   25.12: real time   25.12

 eigenvalue-minimisations  :  2304
 total energy-change (2. order) : 0.8462746E-02  (-0.1971745E-02)
 number of electron     123.0000018 magnetization       0.0037529
 augmentation part       -0.4712178 magnetization       0.0002691

 DIPCOR: dipole corrections for dipol
 direction  3 min pos    87,
 dipolmoment           0.000000      0.000000     -0.187063 electrons x Angstroem
 Tr[quadrupol]     -2525.064187

 energy correction for charged system         0.000000 eV
 dipol+quadrupol energy correction           -0.001792 eV
 added-field ion interaction         -0.305909 eV  (added to PSCEN)


 Broyden mixing:
  rms(total) = 0.17041E-01    rms(broyden)= 0.17041E-01
  rms(prec ) = 0.37799E-01
  weight for this iteration     100.00

 eigenvalues of (default mixing * dielectric matrix)
  average eigenvalue GAMMA=   1.7107
  3.4028  2.5148  2.1113  1.1025  1.1025  1.1030  0.6379

 Free energy of the ion-electron system (eV)
  ---------------------------------------------------
  alpha Z        PSCENC =        62.56739050
  Ewald energy   TEWEN  =      8136.43039434
  -1/2 Hartree   DENC   =    -10538.48603454
  -exchange  EXHF       =         0.00000000
  -V(xc)+E(xc)   XCENC  =       258.60351737
  PAW double counting   =     10785.11400314   -10722.31304028
  entropy T*S    EENTRO =        -0.01153388
  eigenvalues    EBANDS =     -1135.81650923
  atomic energy  EATOM  =      2900.30308171
  ---------------------------------------------------
  free energy    TOTEN  =      -253.60873087 eV

  energy without entropy =     -253.59719699  energy(sigma->0) =     -253.60488624


--------------------------------------------------------------------------------------------------------




----------------------------------------- Iteration    1(  13)  ---------------------------------------


    POTLOK:  cpu time    1.06: real time    1.06
    SETDIJ:  cpu time    0.05: real time    0.05
     EDDAV:  cpu time   22.42: real time   22.42
       DOS:  cpu time    0.00: real time    0.00
    CHARGE:  cpu time    1.35: real time    1.35
    MIXING:  cpu time    0.03: real time    0.03
    --------------------------------------------
      LOOP:  cpu time   24.92: real time   24.92

 eigenvalue-minimisations  :  2288
 total energy-change (2. order) :-0.5081720E-02  (-0.2744723E-02)
 number of electron     123.0000018 magnetization       0.0036547
 augmentation part       -0.4732759 magnetization       0.0005500

 DIPCOR: dipole corrections for dipol
 direction  3 min pos    97,
 dipolmoment           0.000000      0.000000      0.063464 electrons x Angstroem
 Tr[quadrupol]     -2526.541009

 energy correction for charged system         0.000000 eV
 dipol+quadrupol energy correction           -0.000206 eV
 added-field ion interaction          0.817725 eV  (added to PSCEN)


 Broyden mixing:
  rms(total) = 0.11830E-01    rms(broyden)= 0.11830E-01
  rms(prec ) = 0.26887E-01
  weight for this iteration     100.00

 eigenvalues of (default mixing * dielectric matrix)
  average eigenvalue GAMMA=   1.6926
  4.0881  2.5352  2.0520  1.1854  1.1854  0.9349  0.9349  0.6249

 Free energy of the ion-electron system (eV)
  ---------------------------------------------------
  alpha Z        PSCENC =        63.69261065
  Ewald energy   TEWEN  =      8136.43039434
  -1/2 Hartree   DENC   =    -10553.16700980
  -exchange  EXHF       =         0.00000000
  -V(xc)+E(xc)   XCENC  =       258.76744402
  PAW double counting   =     10753.93644670   -10691.16437415
  entropy T*S    EENTRO =        -0.01275291
  eigenvalues    EBANDS =     -1122.39965314
  atomic energy  EATOM  =      2900.30308171
  ---------------------------------------------------
  free energy    TOTEN  =      -253.61381259 eV

  energy without entropy =     -253.60105968  energy(sigma->0) =     -253.60956162


--------------------------------------------------------------------------------------------------------




----------------------------------------- Iteration    1(  14)  ---------------------------------------


    POTLOK:  cpu time    1.06: real time    1.06
    SETDIJ:  cpu time    0.06: real time    0.06
     EDDAV:  cpu time   23.21: real time   23.21
       DOS:  cpu time    0.00: real time    0.00
    CHARGE:  cpu time    1.35: real time    1.35
    MIXING:  cpu time    0.04: real time    0.04
    --------------------------------------------
      LOOP:  cpu time   25.72: real time   25.72

 eigenvalue-minimisations  :  2400
 total energy-change (2. order) :-0.1670330E-02  (-0.1873863E-03)
 number of electron     123.0000018 magnetization       0.0033643
 augmentation part       -0.4728390 magnetization       0.0002046

 DIPCOR: dipole corrections for dipol
 direction  3 min pos   102,
 dipolmoment           0.000000      0.000000      0.166517 electrons x Angstroem
 Tr[quadrupol]     -2526.937906

 energy correction for charged system         0.000000 eV
 dipol+quadrupol energy correction           -0.001420 eV
 added-field ion interaction          3.082194 eV  (added to PSCEN)


 Broyden mixing:
  rms(total) = 0.10186E-01    rms(broyden)= 0.10186E-01
  rms(prec ) = 0.24708E-01
  weight for this iteration     100.00

 eigenvalues of (default mixing * dielectric matrix)
  average eigenvalue GAMMA=   1.7768
  4.3721  2.5379  2.0496  1.6395  1.6395  1.0567  1.0567  1.0022  0.6369

 Free energy of the ion-electron system (eV)
  ---------------------------------------------------
  alpha Z        PSCENC =        65.95586561
  Ewald energy   TEWEN  =      8136.43039434
  -1/2 Hartree   DENC   =    -10555.15008141
  -exchange  EXHF       =         0.00000000
  -V(xc)+E(xc)   XCENC  =       258.76755783
  PAW double counting   =     10742.57988315   -10679.80089509
  entropy T*S    EENTRO =        -0.01275237
  eigenvalues    EBANDS =     -1122.68853668
  atomic energy  EATOM  =      2900.30308171
  ---------------------------------------------------
  free energy    TOTEN  =      -253.61548292 eV

  energy without entropy =     -253.60273055  energy(sigma->0) =     -253.61123213


--------------------------------------------------------------------------------------------------------




----------------------------------------- Iteration    1(  15)  ---------------------------------------


    POTLOK:  cpu time    1.05: real time    1.05
    SETDIJ:  cpu time    0.05: real time    0.05
     EDDAV:  cpu time   23.64: real time   23.64
       DOS:  cpu time    0.00: real time    0.00
    CHARGE:  cpu time    1.35: real time    1.35
    MIXING:  cpu time    0.04: real time    0.04
    --------------------------------------------
      LOOP:  cpu time   26.14: real time   26.14

 eigenvalue-minimisations  :  2456
 total energy-change (2. order) :-0.8166522E-02  (-0.4134844E-02)
 number of electron     123.0000018 magnetization       0.0031456
 augmentation part       -0.4767985 magnetization       0.0008337

 DIPCOR: dipole corrections for dipol
 direction  3 min pos   102,
 dipolmoment           0.000000      0.000000      0.058102 electrons x Angstroem
 Tr[quadrupol]     -2527.629660

 energy correction for charged system         0.000000 eV
 dipol+quadrupol energy correction           -0.000173 eV
 added-field ion interaction          1.075447 eV  (added to PSCEN)


 Broyden mixing:
  rms(total) = 0.22178E-01    rms(broyden)= 0.22178E-01
  rms(prec ) = 0.41023E-01
  weight for this iteration     100.00

 eigenvalues of (default mixing * dielectric matrix)
  average eigenvalue GAMMA=   1.7471
  5.1664  2.6891  2.1167  1.8960  1.1412  1.1412  0.9512  0.9512  0.7091  0.7091

 Free energy of the ion-electron system (eV)
  ---------------------------------------------------
  alpha Z        PSCENC =        63.95036512
  Ewald energy   TEWEN  =      8136.43039434
  -1/2 Hartree   DENC   =    -10560.66637865
  -exchange  EXHF       =         0.00000000
  -V(xc)+E(xc)   XCENC  =       258.77283204
  PAW double counting   =     10755.84117222   -10693.06371870
  entropy T*S    EENTRO =        -0.00923320
  eigenvalues    EBANDS =     -1115.18216431
  atomic energy  EATOM  =      2900.30308171
  ---------------------------------------------------
  free energy    TOTEN  =      -253.62364944 eV

  energy without entropy =     -253.61441624  energy(sigma->0) =     -253.62057171


--------------------------------------------------------------------------------------------------------




----------------------------------------- Iteration    1(  16)  ---------------------------------------


    POTLOK:  cpu time    1.05: real time    1.05
    SETDIJ:  cpu time    0.05: real time    0.05
     EDDAV:  cpu time   22.37: real time   22.37
       DOS:  cpu time    0.00: real time    0.00
    CHARGE:  cpu time    1.29: real time    1.30
    MIXING:  cpu time    0.04: real time    0.04
    --------------------------------------------
      LOOP:  cpu time   24.82: real time   24.83

 eigenvalue-minimisations  :  2288
 total energy-change (2. order) : 0.2706578E-02  (-0.3418841E-03)
 number of electron     123.0000018 magnetization       0.0028219
 augmentation part       -0.4755511 magnetization       0.0004178

 DIPCOR: dipole corrections for dipol
 direction  3 min pos   102,
 dipolmoment           0.000000      0.000000      0.056650 electrons x Angstroem
 Tr[quadrupol]     -2527.889843

 energy correction for charged system         0.000000 eV
 dipol+quadrupol energy correction           -0.000164 eV
 added-field ion interaction          1.048573 eV  (added to PSCEN)


 Broyden mixing:
  rms(total) = 0.12877E-01    rms(broyden)= 0.12876E-01
  rms(prec ) = 0.24073E-01
  weight for this iteration     100.00

 eigenvalues of (default mixing * dielectric matrix)
  average eigenvalue GAMMA=   1.7082
  5.3790  2.6720  2.2523  1.9470  1.0681  1.0681  0.9528  0.9528  0.6407  0.9287
  0.9287

 Free energy of the ion-electron system (eV)
  ---------------------------------------------------
  alpha Z        PSCENC =        63.92349965
  Ewald energy   TEWEN  =      8136.43039434
  -1/2 Hartree   DENC   =    -10561.26985433
  -exchange  EXHF       =         0.00000000
  -V(xc)+E(xc)   XCENC  =       258.75464758
  PAW double counting   =     10741.89492065   -10679.11477131
  entropy T*S    EENTRO =        -0.01031362
  eigenvalues    EBANDS =     -1114.53254752
  atomic energy  EATOM  =      2900.30308171
  ---------------------------------------------------
  free energy    TOTEN  =      -253.62094286 eV

  energy without entropy =     -253.61062924  energy(sigma->0) =     -253.61750499


--------------------------------------------------------------------------------------------------------




----------------------------------------- Iteration    1(  17)  ---------------------------------------


    POTLOK:  cpu time    1.05: real time    1.05
    SETDIJ:  cpu time    0.05: real time    0.05
     EDDAV:  cpu time   21.13: real time   21.13
       DOS:  cpu time    0.00: real time    0.00
    CHARGE:  cpu time    1.33: real time    1.33
    MIXING:  cpu time    0.05: real time    0.05
    --------------------------------------------
      LOOP:  cpu time   23.61: real time   23.61

 eigenvalue-minimisations  :  2112
 total energy-change (2. order) :-0.2785875E-02  (-0.3151932E-03)
 number of electron     123.0000018 magnetization       0.0025243
 augmentation part       -0.4741306 magnetization       0.0004820

 DIPCOR: dipole corrections for dipol
 direction  3 min pos   101,
 dipolmoment           0.000000      0.000000      0.015236 electrons x Angstroem
 Tr[quadrupol]     -2528.184761

 energy correction for charged system         0.000000 eV
 dipol+quadrupol energy correction           -0.000012 eV
 added-field ion interaction          0.264870 eV  (added to PSCEN)


 Broyden mixing:
  rms(total) = 0.41202E-02    rms(broyden)= 0.41200E-02
  rms(prec ) = 0.81966E-02
  weight for this iteration     100.00

 eigenvalues of (default mixing * dielectric matrix)
  average eigenvalue GAMMA=   1.8209
  5.9600  3.1357  2.5451  1.8964  1.2811  1.2811  1.4128  1.0081  1.0081  1.0125
  0.6616  0.6480

 Free energy of the ion-electron system (eV)
  ---------------------------------------------------
  alpha Z        PSCENC =        63.13994978
  Ewald energy   TEWEN  =      8136.43039434
  -1/2 Hartree   DENC   =    -10561.93037898
  -exchange  EXHF       =         0.00000000
  -V(xc)+E(xc)   XCENC  =       258.74538250
  PAW double counting   =     10751.45730205   -10688.67758709
  entropy T*S    EENTRO =        -0.01123591
  eigenvalues    EBANDS =     -1113.08063714
  atomic energy  EATOM  =      2900.30308171
  ---------------------------------------------------
  free energy    TOTEN  =      -253.62372874 eV

  energy without entropy =     -253.61249283  energy(sigma->0) =     -253.61998344


--------------------------------------------------------------------------------------------------------




----------------------------------------- Iteration    1(  18)  ---------------------------------------


    POTLOK:  cpu time    1.05: real time    1.05
    SETDIJ:  cpu time    0.06: real time    0.06
     EDDAV:  cpu time   22.14: real time   22.14
       DOS:  cpu time    0.00: real time    0.00
    CHARGE:  cpu time    1.33: real time    1.33
    MIXING:  cpu time    0.05: real time    0.05
    --------------------------------------------
      LOOP:  cpu time   24.64: real time   24.64

 eigenvalue-minimisations  :  2256
 total energy-change (2. order) :-0.3017600E-02  (-0.6789067E-04)
 number of electron     123.0000018 magnetization       0.0024108
 augmentation part       -0.4740987 magnetization       0.0004250

 DIPCOR: dipole corrections for dipol
 direction  3 min pos    99,
 dipolmoment           0.000000      0.000000     -0.029990 electrons x Angstroem
 Tr[quadrupol]     -2528.386746

 energy correction for charged system         0.000000 eV
 dipol+quadrupol energy correction           -0.000046 eV
 added-field ion interaction         -0.453894 eV  (added to PSCEN)


 Broyden mixing:
  rms(total) = 0.34500E-02    rms(broyden)= 0.34500E-02
  rms(prec ) = 0.68786E-02
  weight for this iteration     100.00

 eigenvalues of (default mixing * dielectric matrix)
  average eigenvalue GAMMA=   1.7496
  6.0251  3.2605  2.4834  1.2983  1.2983  1.7828  1.5798  0.9978  0.9978  0.9292
  0.7521  0.6356  0.7034

 Free energy of the ion-electron system (eV)
  ---------------------------------------------------
  alpha Z        PSCENC =        62.42115126
  Ewald energy   TEWEN  =      8136.43039434
  -1/2 Hartree   DENC   =    -10562.44711264
  -exchange  EXHF       =         0.00000000
  -V(xc)+E(xc)   XCENC  =       258.73830091
  PAW double counting   =     10753.24282184   -10690.46309890
  entropy T*S    EENTRO =        -0.01106184
  eigenvalues    EBANDS =     -1111.84122301
  atomic energy  EATOM  =      2900.30308171
  ---------------------------------------------------
  free energy    TOTEN  =      -253.62674634 eV

  energy without entropy =     -253.61568450  energy(sigma->0) =     -253.62305906


--------------------------------------------------------------------------------------------------------




----------------------------------------- Iteration    1(  19)  ---------------------------------------


    POTLOK:  cpu time    1.05: real time    1.05
    SETDIJ:  cpu time    0.05: real time    0.05
     EDDAV:  cpu time   17.58: real time   17.58
       DOS:  cpu time    0.00: real time    0.00
    CHARGE:  cpu time    1.36: real time    1.36
    MIXING:  cpu time    0.05: real time    0.05
    --------------------------------------------
      LOOP:  cpu time   20.10: real time   20.10

 eigenvalue-minimisations  :  1648
 total energy-change (2. order) :-0.1141839E-02  (-0.7376555E-05)
 number of electron     123.0000018 magnetization       0.0019066
 augmentation part       -0.4741757 magnetization       0.0000761

 DIPCOR: dipole corrections for dipol
 direction  3 min pos    98,
 dipolmoment           0.000000      0.000000     -0.046997 electrons x Angstroem
 Tr[quadrupol]     -2528.439993

 energy correction for charged system         0.000000 eV
 dipol+quadrupol energy correction           -0.000113 eV
 added-field ion interaction         -0.658426 eV  (added to PSCEN)


 Broyden mixing:
  rms(total) = 0.32055E-02    rms(broyden)= 0.32055E-02
  rms(prec ) = 0.68936E-02
  weight for this iteration     100.00

 eigenvalues of (default mixing * dielectric matrix)
  average eigenvalue GAMMA=   1.8888
  6.3948  3.6741  2.5756  2.5756  1.7470  1.7470  1.2294  1.2294  1.0290  1.0290
  1.0416  0.8904  0.6500  0.6295

 Free energy of the ion-electron system (eV)
  ---------------------------------------------------
  alpha Z        PSCENC =        62.21655248
  Ewald energy   TEWEN  =      8136.43039434
  -1/2 Hartree   DENC   =    -10562.47634240
  -exchange  EXHF       =         0.00000000
  -V(xc)+E(xc)   XCENC  =       258.73560431
  PAW double counting   =     10750.71644483   -10687.93617538
  entropy T*S    EENTRO =        -0.01093117
  eigenvalues    EBANDS =     -1111.60651689
  atomic energy  EATOM  =      2900.30308171
  ---------------------------------------------------
  free energy    TOTEN  =      -253.62788818 eV

  energy without entropy =     -253.61695701  energy(sigma->0) =     -253.62424446


--------------------------------------------------------------------------------------------------------




----------------------------------------- Iteration    1(  20)  ---------------------------------------


    POTLOK:  cpu time    1.06: real time    1.06
    SETDIJ:  cpu time    0.05: real time    0.05
     EDDAV:  cpu time   19.54: real time   19.54
       DOS:  cpu time    0.00: real time    0.00
    CHARGE:  cpu time    1.34: real time    1.34
    MIXING:  cpu time    0.05: real time    0.05
    --------------------------------------------
      LOOP:  cpu time   22.06: real time   22.06

 eigenvalue-minimisations  :  1904
 total energy-change (2. order) :-0.3351709E-02  (-0.6307841E-04)
 number of electron     123.0000018 magnetization       0.0017302
 augmentation part       -0.4739039 magnetization       0.0002988

 DIPCOR: dipole corrections for dipol
 direction  3 min pos    97,
 dipolmoment           0.000000      0.000000     -0.085019 electrons x Angstroem
 Tr[quadrupol]     -2528.628783

 energy correction for charged system         0.000000 eV
 dipol+quadrupol energy correction           -0.000370 eV
 added-field ion interaction         -1.095468 eV  (added to PSCEN)


 Broyden mixing:
  rms(total) = 0.13354E-02    rms(broyden)= 0.13354E-02
  rms(prec ) = 0.29528E-02
  weight for this iteration     100.00

 eigenvalues of (default mixing * dielectric matrix)
  average eigenvalue GAMMA=   1.9756
  7.3907  4.9312  2.6120  2.6120  1.7490  1.7490  1.2430  1.2430  1.0125  1.0125
  1.0126  1.0126  0.7817  0.6473  0.6253

 Free energy of the ion-electron system (eV)
  ---------------------------------------------------
  alpha Z        PSCENC =        61.77925345
  Ewald energy   TEWEN  =      8136.43039434
  -1/2 Hartree   DENC   =    -10562.62309094
  -exchange  EXHF       =         0.00000000
  -V(xc)+E(xc)   XCENC  =       258.72943664
  PAW double counting   =     10748.29541675   -10685.51370196
  entropy T*S    EENTRO =        -0.01102647
  eigenvalues    EBANDS =     -1111.02100341
  atomic energy  EATOM  =      2900.30308171
  ---------------------------------------------------
  free energy    TOTEN  =      -253.63123989 eV

  energy without entropy =     -253.62021342  energy(sigma->0) =     -253.62756440


--------------------------------------------------------------------------------------------------------




----------------------------------------- Iteration    1(  21)  ---------------------------------------


    POTLOK:  cpu time    1.04: real time    1.04
    SETDIJ:  cpu time    0.05: real time    0.05
     EDDAV:  cpu time   17.65: real time   17.66
       DOS:  cpu time    0.00: real time    0.00
    CHARGE:  cpu time    1.33: real time    1.33
    MIXING:  cpu time    0.06: real time    0.06
    --------------------------------------------
      LOOP:  cpu time   20.15: real time   20.15

 eigenvalue-minimisations  :  1648
 total energy-change (2. order) :-0.5249947E-03  (-0.4967204E-05)
 number of electron     123.0000018 magnetization       0.0015368
 augmentation part       -0.4740049 magnetization       0.0001950

 DIPCOR: dipole corrections for dipol
 direction  3 min pos    96,
 dipolmoment           0.000000      0.000000     -0.093642 electrons x Angstroem
 Tr[quadrupol]     -2528.686226

 energy correction for charged system         0.000000 eV
 dipol+quadrupol energy correction           -0.000449 eV
 added-field ion interaction         -1.101223 eV  (added to PSCEN)


 Broyden mixing:
  rms(total) = 0.16291E-02    rms(broyden)= 0.16291E-02
  rms(prec ) = 0.33762E-02
  weight for this iteration     100.00

 eigenvalues of (default mixing * dielectric matrix)
  average eigenvalue GAMMA=   1.9932
  7.8858  5.1514  2.6288  2.6288  1.7547  1.7547  1.2232  1.2232  1.6049  1.0281
  1.0281  0.9932  0.9932  0.7298  0.6401  0.6239

 Free energy of the ion-electron system (eV)
  ---------------------------------------------------
  alpha Z        PSCENC =        61.77341909
  Ewald energy   TEWEN  =      8136.43039434
  -1/2 Hartree   DENC   =    -10562.74728674
  -exchange  EXHF       =         0.00000000
  -V(xc)+E(xc)   XCENC  =       258.73029751
  PAW double counting   =     10748.76523511   -10685.98408575
  entropy T*S    EENTRO =        -0.01095615
  eigenvalues    EBANDS =     -1110.89186400
  atomic energy  EATOM  =      2900.30308171
  ---------------------------------------------------
  free energy    TOTEN  =      -253.63176488 eV

  energy without entropy =     -253.62080873  energy(sigma->0) =     -253.62811283


--------------------------------------------------------------------------------------------------------




----------------------------------------- Iteration    1(  22)  ---------------------------------------


    POTLOK:  cpu time    1.05: real time    1.05
    SETDIJ:  cpu time    0.05: real time    0.05
     EDDAV:  cpu time   16.21: real time   16.21
       DOS:  cpu time    0.00: real time    0.00
    CHARGE:  cpu time    1.35: real time    1.35
    MIXING:  cpu time    0.07: real time    0.07
    --------------------------------------------
      LOOP:  cpu time   18.74: real time   18.74

 eigenvalue-minimisations  :  1464
 total energy-change (2. order) :-0.2711371E-03  (-0.3791879E-05)
 number of electron     123.0000018 magnetization       0.0013561
 augmentation part       -0.4739641 magnetization       0.0001868

 DIPCOR: dipole corrections for dipol
 direction  3 min pos    98,
 dipolmoment           0.000000      0.000000     -0.095774 electrons x Angstroem
 Tr[quadrupol]     -2528.668264

 energy correction for charged system         0.000000 eV
 dipol+quadrupol energy correction           -0.000470 eV
 added-field ion interaction         -1.341787 eV  (added to PSCEN)


 Broyden mixing:
  rms(total) = 0.11976E-02    rms(broyden)= 0.11976E-02
  rms(prec ) = 0.24415E-02
  weight for this iteration     100.00

 eigenvalues of (default mixing * dielectric matrix)
  average eigenvalue GAMMA=   2.0461
  8.5428  5.3699  2.7805  2.7805  2.2106  2.2106  1.2420  1.2420  1.4188  1.1033
  1.1033  0.9722  0.9722  0.8736  0.6921  0.6471  0.6225

 Free energy of the ion-electron system (eV)
  ---------------------------------------------------
  alpha Z        PSCENC =        61.53283452
  Ewald energy   TEWEN  =      8136.43039434
  -1/2 Hartree   DENC   =    -10562.72270650
  -exchange  EXHF       =         0.00000000
  -V(xc)+E(xc)   XCENC  =       258.72936829
  PAW double counting   =     10748.69489465   -10685.91381987
  entropy T*S    EENTRO =        -0.01099877
  eigenvalues    EBANDS =     -1110.67508438
  atomic energy  EATOM  =      2900.30308171
  ---------------------------------------------------
  free energy    TOTEN  =      -253.63203602 eV

  energy without entropy =     -253.62103725  energy(sigma->0) =     -253.62836976


--------------------------------------------------------------------------------------------------------




----------------------------------------- Iteration    1(  23)  ---------------------------------------


    POTLOK:  cpu time    1.06: real time    1.06
[...]
      2     -16.7984      1.00000
      3     -16.6284      1.00000
      4     -16.5212      1.00000
      5     -15.7104      1.00000
      6     -15.5974      1.00000
      7     -15.0225      1.00000
      8     -14.9085      1.00000
      9     -14.0927      1.00000
     10     -13.4285      1.00000
     11     -13.2355      1.00000
     12     -13.1098      1.00000
     13     -13.0138      1.00000
     14     -12.8560      1.00000
     15     -12.7038      1.00000
     16     -12.2602      1.00000
     17     -12.2187      1.00000
     18     -11.9941      1.00000
     19     -11.9260      1.00000
     20     -11.8290      1.00000
     21     -10.7451      1.00000
     22     -10.0481      1.00000
     23      -9.6552      1.00000
     24      -9.6110      1.00000
     25      -9.2510      1.00000
     26      -9.0623      1.00000
     27      -8.9788      1.00000
     28      -8.8028      1.00000
     29      -8.5665      1.00000
     30      -8.5433      1.00000
     31      -8.5099      1.00000
     32      -8.3437      1.00000
     33      -8.0252      1.00000
     34      -7.9909      1.00000
     35      -7.7128      1.00000
     36      -7.4804      1.00000
     37      -7.4507      1.00000
     38      -7.1972      1.00000
     39      -7.1548      1.00000
     40      -7.0690      1.00000
     41      -6.4219      1.00000
     42      -6.1964      1.00000
     43      -5.9377      1.00000
     44      -5.7940      1.00000
     45      -5.5772      1.00000
     46      -5.4834      1.00000
     47      -5.3652      1.00000
     48      -5.3307      1.00000
     49      -5.1684      1.00000
     50      -5.0371      1.00000
     51      -4.9921      1.00000
     52      -4.8661      1.00000
     53      -4.8427      1.00000
     54      -4.4242      1.00000
     55      -4.3124      1.00000
     56      -4.1504      1.00000
     57      -3.9172      1.00000
     58      -3.8621      1.00000
     59      -3.6850      1.00000
     60      -3.3807      1.00000
     61      -3.2593      1.00001
     62      -2.7215     -0.00891
     63      -2.5186     -0.00000
     64      -2.3280     -0.00000
     65      -2.0959     -0.00000
     66      -1.8043     -0.00000
     67      -1.1530     -0.00000
     68      -0.6984     -0.00000
     69      -0.4240     -0.00000
     70      -0.1591      0.00000
     71       0.2611      0.00000
     72       0.5925      0.00000
     73       0.8242      0.00000
     74       1.0315      0.00000
     75       1.0935      0.00000
     76       1.2818      0.00000
     77       1.3407      0.00000
     78       1.4170      0.00000
     79       1.5271      0.00000
     80       1.6294      0.00000
     81       1.6795      0.00000
     82       1.7578      0.00000


--------------------------------------------------------------------------------------------------------


 soft charge-density along one line, spin component           1
         0         1         2         3         4         5         6         7         8         9
 total charge-density along one line
 
 soft charge-density along one line, spin component           2
         0         1         2         3         4         5         6         7         8         9
 total charge-density along one line
 
 pseudopotential strength for first ion, spin component:           1
  6.732  10.272   0.000  -0.000   0.013   0.000  -0.000   0.020
 10.272  15.670   0.000  -0.000   0.019   0.000  -0.000   0.030
  0.000   0.000  -2.316   0.000  -0.000  -3.975   0.000  -0.000
 -0.000  -0.000   0.000  -2.320   0.000   0.000  -3.980   0.000
  0.013   0.019  -0.000   0.000  -2.320  -0.000   0.000  -3.983
  0.000   0.000  -3.975   0.000  -0.000  -6.625   0.000  -0.000
 -0.000  -0.000   0.000  -3.980   0.000   0.000  -6.631  -0.000
  0.020   0.030  -0.000   0.000  -3.983  -0.000  -0.000  -6.641
 pseudopotential strength for first ion, spin component:           2
  6.732  10.272   0.000   0.000   0.013   0.000  -0.000   0.020
 10.272  15.669   0.000   0.000   0.019   0.000  -0.000   0.030
  0.000   0.000  -2.316   0.000  -0.000  -3.975   0.000  -0.000
  0.000   0.000   0.000  -2.320   0.000   0.000  -3.980   0.000
  0.013   0.019  -0.000   0.000  -2.320  -0.000   0.000  -3.983
  0.000   0.000  -3.975   0.000  -0.000  -6.625   0.000  -0.000
 -0.000  -0.000   0.000  -3.980   0.000   0.000  -6.630   0.000
  0.020   0.030  -0.000   0.000  -3.983  -0.000   0.000  -6.642
 total augmentation occupancy for first ion, spin component:           1
  3.456  -0.868   0.000   0.062   0.310  -0.000  -0.023  -0.170
 -0.868   0.235  -0.001  -0.023  -0.222   0.000   0.008   0.084
  0.000  -0.001   3.253   0.038  -0.009  -0.810  -0.010   0.002
  0.062  -0.023   0.038   1.347   0.081  -0.010  -0.295  -0.023
  0.310  -0.222  -0.009   0.081   4.048   0.002  -0.023  -1.101
 -0.000   0.000  -0.810  -0.010   0.002   0.208   0.003  -0.001
 -0.023   0.008  -0.010  -0.295  -0.023   0.003   0.066   0.007
 -0.170   0.084   0.002  -0.023  -1.101  -0.001   0.007   0.309
 total augmentation occupancy for first ion, spin component:           2
  0.000  -0.000  -0.000  -0.000  -0.000   0.000   0.000   0.000
 -0.000   0.000   0.000   0.000   0.000  -0.000  -0.000  -0.000
 -0.000   0.000   0.000  -0.000   0.000  -0.000   0.000   0.000
 -0.000   0.000  -0.000   0.006   0.001   0.000  -0.001  -0.000
 -0.000   0.000   0.000   0.001  -0.001   0.000  -0.000  -0.000
  0.000  -0.000  -0.000   0.000   0.000   0.000  -0.000  -0.000
  0.000  -0.000   0.000  -0.001  -0.000  -0.000   0.000   0.000
  0.000  -0.000   0.000  -0.000  -0.000  -0.000   0.000   0.000


------------------------ aborting loop because EDIFF is reached ----------------------------------------


    CHARGE:  cpu time    1.24: real time    1.24
    FORLOC:  cpu time    0.14: real time    0.14
    FORNL :  cpu time    4.28: real time    4.28
    STRESS:  cpu time   12.91: real time   12.91
    FORCOR:  cpu time    1.10: real time    1.10
    FORHAR:  cpu time    0.22: real time    0.22
    MIXING:  cpu time    0.02: real time    0.02

  FORCE on cell =-STRESS in cart. coord.  units (eV):
  Direction    XX          YY          ZZ          XY          YZ          ZX
  --------------------------------------------------------------------------------------
  Alpha Z    62.87509    62.87509    62.87509
  Ewald   11027.63635 11178.64194-13976.35394    -0.00000    -0.00000    -1.52239
  Hartree 10514.92825 10603.66145-10458.19353     0.00000    -0.00000    -0.42665
  E(xc)    -388.56117  -388.55107  -399.93109    -0.00000    -0.00000    -0.00533
  Local  -22470.35423-22706.53842 23362.52493     0.00000     0.00000     1.79007
  n-local   -22.58900   -16.50282   -12.53396    -0.00000     0.00042     0.01943
  augment     1.49805     1.56420     2.33131     0.00000    -0.00000    -0.00075
  Kinetic  1275.73756  1258.37230  1419.14541    -0.00000     0.00008     0.17941
  Fock        0.00000     0.00000     0.00000     0.00000     0.00000     0.00000
  -------------------------------------------------------------------------------------
  Total       1.17090    -6.47733    -0.13578     0.00000     0.00000     0.03379
  in kB       1.04673    -5.79048    -0.12138     0.00000     0.00000     0.03021
  external pressure =       -1.62 kB  Pullay stress =        0.00 kB


 VOLUME and BASIS-vectors are now :
 -----------------------------------------------------------------------------
  energy-cutoff  :      500.00
  volume of cell :     1792.22
      direct lattice vectors                 reciprocal lattice vectors
    10.160000000  0.000000000  0.000000000     0.098425197  0.000000000  0.000000000
     0.000000000 11.760000000  0.000000000     0.000000000  0.085034014  0.000000000
     0.000000000  0.000000000 15.000000000     0.000000000  0.000000000  0.066666667

  length of vectors
    10.160000000 11.760000000 15.000000000     0.098425197  0.085034014  0.066666667


 FORCES acting on ions
    electron-ion (+dipol)            ewald-force                    non-local-force                 convergence-correction
 -----------------------------------------------------------------------------------------------
   0.313E+02 0.174E+01 0.145E+02   -.362E+02 -.181E+01 -.145E+02   0.492E+01 0.649E-01 -.338E-01   -.115E-02 0.532E-03 0.285E-02
   0.123E+01 0.209E+01 0.105E+02   -.189E+01 -.238E+01 -.107E+02   0.655E+00 0.298E+00 0.281E+00   0.552E-03 0.295E-02 0.257E-02
   -.214E+02 0.126E+02 0.306E+01   0.248E+02 -.142E+02 -.435E+01   -.344E+01 0.163E+01 0.129E+01   0.115E-02 0.411E-02 0.137E-02
   0.335E+02 -.223E-14 0.308E+01   -.384E+02 -.222E-13 -.333E+01   0.483E+01 0.000E+00 0.252E+00   0.136E-02 -.196E-12 0.185E-02
   -.154E+02 0.108E-14 0.840E+01   0.181E+02 -.191E-13 -.929E+01   -.268E+01 0.000E+00 0.897E+00   0.908E-03 -.146E-12 0.416E-03
   0.313E+02 -.174E+01 0.145E+02   -.362E+02 0.181E+01 -.145E+02   0.492E+01 -.649E-01 -.338E-01   -.115E-02 -.532E-03 0.285E-02
   0.123E+01 -.209E+01 0.105E+02   -.189E+01 0.238E+01 -.107E+02   0.655E+00 -.298E+00 0.281E+00   0.552E-03 -.295E-02 0.257E-02
   -.214E+02 -.126E+02 0.306E+01   0.248E+02 0.142E+02 -.435E+01   -.344E+01 -.163E+01 0.129E+01   0.115E-02 -.411E-02 0.137E-02
   0.322E+02 -.463E+01 0.117E+02   -.366E+02 0.481E+01 -.119E+02   0.443E+01 -.176E+00 0.176E+00   -.880E-03 -.232E-03 0.334E-02
   -.273E+02 -.533E+01 -.622E+01   0.314E+02 0.578E+01 0.662E+01   -.415E+01 -.459E+00 -.404E+00   -.113E-02 0.585E-03 0.230E-02
   0.285E+02 -.714E+00 0.103E+02   -.334E+02 0.843E+00 -.104E+02   0.491E+01 -.131E+00 0.946E-01   -.385E-03 -.156E-03 0.900E-03
   0.874E+00 -.136E+01 0.138E+01   -.903E+00 0.155E+01 -.137E+01   0.278E-01 -.179E+00 -.132E-01   0.895E-03 -.105E-02 0.790E-03
   -.282E+02 -.257E+01 -.408E+01   0.331E+02 0.272E+01 0.407E+01   -.488E+01 -.152E+00 0.694E-02   -.284E-02 0.424E-03 -.668E-04
   0.303E+02 0.209E-13 0.104E+01   -.348E+02 -.501E-11 -.124E+01   0.443E+01 0.000E+00 0.204E+00   -.121E-02 0.272E-12 -.693E-03
   -.299E+02 -.192E-13 -.129E+01   0.343E+02 -.899E-12 0.153E+01   -.437E+01 0.000E+00 -.232E+00   0.321E-03 0.193E-12 -.111E-02
   0.285E+02 0.714E+00 0.103E+02   -.334E+02 -.843E+00 -.104E+02   0.491E+01 0.131E+00 0.946E-01   -.385E-03 0.156E-03 0.900E-03
   0.874E+00 0.136E+01 0.138E+01   -.903E+00 -.155E+01 -.137E+01   0.278E-01 0.179E+00 -.132E-01   0.895E-03 0.105E-02 0.790E-03
   -.282E+02 0.257E+01 -.408E+01   0.331E+02 -.272E+01 0.407E+01   -.488E+01 0.152E+00 0.694E-02   -.284E-02 -.424E-03 -.668E-04
   0.322E+02 0.463E+01 0.117E+02   -.366E+02 -.481E+01 -.119E+02   0.443E+01 0.176E+00 0.176E+00   -.880E-03 0.232E-03 0.334E-02
   -.273E+02 0.533E+01 -.622E+01   0.314E+02 -.578E+01 0.662E+01   -.415E+01 0.459E+00 -.404E+00   -.113E-02 -.585E-03 0.230E-02
   0.213E+02 0.126E+02 0.163E+01   -.247E+02 -.142E+02 -.294E+01   0.343E+01 0.163E+01 0.130E+01   -.145E-02 0.313E-02 0.122E-02
   -.125E+01 0.207E+01 0.103E+02   0.189E+01 -.236E+01 -.106E+02   -.652E+00 0.295E+00 0.302E+00   -.682E-03 0.288E-02 0.161E-02
   -.313E+02 0.172E+01 0.147E+02   0.362E+02 -.180E+01 -.147E+02   -.493E+01 0.704E-01 -.381E-01   0.150E-02 0.156E-02 0.216E-02
   0.152E+02 0.189E-13 0.555E+01   -.179E+02 0.266E-13 -.642E+01   0.267E+01 0.000E+00 0.875E+00   -.744E-03 -.176E-12 -.676E-04
   -.336E+02 0.537E-13 0.200E+01   0.384E+02 -.462E-13 -.227E+01   -.483E+01 0.000E+00 0.280E+00   -.216E-04 -.251E-13 0.421E-03
   0.213E+02 -.126E+02 0.163E+01   -.247E+02 0.142E+02 -.294E+01   0.343E+01 -.163E+01 0.130E+01   -.145E-02 -.313E-02 0.122E-02
   -.125E+01 -.207E+01 0.103E+02   0.189E+01 0.236E+01 -.106E+02   -.652E+00 -.295E+00 0.302E+00   -.682E-03 -.288E-02 0.161E-02
   -.313E+02 -.172E+01 0.147E+02   0.362E+02 0.180E+01 -.147E+02   -.493E+01 -.704E-01 -.381E-01   0.150E-02 -.156E-02 0.216E-02
   0.272E+02 -.531E+01 -.635E+01   -.314E+02 0.578E+01 0.676E+01   0.414E+01 -.463E+00 -.418E+00   0.366E-03 0.734E-03 0.169E-02
   -.321E+02 -.461E+01 0.128E+02   0.366E+02 0.478E+01 -.129E+02   -.443E+01 -.177E+00 0.175E+00   0.967E-03 0.653E-03 0.239E-02
   0.282E+02 -.257E+01 -.437E+01   -.331E+02 0.272E+01 0.435E+01   0.488E+01 -.151E+00 0.278E-01   0.328E-02 0.686E-03 -.852E-03
   -.881E+00 -.135E+01 0.149E+01   0.911E+00 0.154E+01 -.147E+01   -.307E-01 -.179E+00 -.122E-01   -.170E-02 -.107E-02 -.530E-03
   -.285E+02 -.728E+00 0.107E+02   0.334E+02 0.857E+00 -.108E+02   -.491E+01 -.130E+00 0.740E-01   0.816E-03 -.174E-02 0.229E-03
   0.299E+02 0.333E-13 -.205E+01   -.343E+02 -.176E-13 0.229E+01   0.438E+01 0.000E+00 -.229E+00   -.104E-02 0.305E-12 -.292E-02
   -.304E+02 0.805E-13 0.603E+00   0.348E+02 -.721E-14 -.812E+00   -.443E+01 0.000E+00 0.217E+00   -.100E-02 0.536E-12 -.223E-02
   0.282E+02 0.257E+01 -.437E+01   -.331E+02 -.272E+01 0.435E+01   0.488E+01 0.151E+00 0.278E-01   0.328E-02 -.686E-03 -.852E-03
   -.881E+00 0.135E+01 0.149E+01   0.911E+00 -.154E+01 -.147E+01   -.307E-01 0.179E+00 -.122E-01   -.170E-02 0.107E-02 -.530E-03
   -.285E+02 0.728E+00 0.107E+02   0.334E+02 -.857E+00 -.108E+02   -.491E+01 0.130E+00 0.740E-01   0.816E-03 0.174E-02 0.229E-03
   0.272E+02 0.531E+01 -.635E+01   -.314E+02 -.578E+01 0.676E+01   0.414E+01 0.463E+00 -.418E+00   0.366E-03 -.734E-03 0.169E-02
   -.321E+02 0.461E+01 0.128E+02   0.366E+02 -.478E+01 -.129E+02   -.443E+01 0.177E+00 0.175E+00   0.967E-03 -.653E-03 0.239E-02
   0.317E+00 -.113E-12 -.193E+03   -.285E+00 -.102E-13 0.189E+03   -.363E-01 0.000E+00 0.416E+01   -.251E-03 -.255E-12 -.116E-02
 -----------------------------------------------------------------------------------------------
   0.440E-01 0.264E-12 -.121E+02   -.147E-12 -.599E-13 0.000E+00   -.599E-01 0.833E-16 0.120E+02   -.307E-02 -.295E-12 0.384E-01
 
 
 POSITION                                       TOTAL-FORCE (eV/Angst)
 -----------------------------------------------------------------------------------
     10.13737      0.00121     -0.08167        -0.002084     -0.002865     -0.002337
      1.65277     -0.01298     -0.00971         0.003897      0.005503     -0.002619
      3.39373     -0.02071      0.11264        -0.001934     -0.001008      0.001632
      0.81311      1.47000     -0.00785         0.006380     -0.000000      0.000096
      2.55227      1.47000      0.07192        -0.001343     -0.000000      0.005885
     10.13737      2.93879     -0.08167        -0.002084      0.002865     -0.002337
      1.65277      2.95298     -0.00971         0.003897     -0.005503     -0.002619
      3.39373      2.96071      0.11264        -0.001934      0.001008      0.001632
      0.81796      4.41051     -0.05329        -0.004231     -0.000062     -0.006114
      2.55328      4.41448      0.07482         0.000233     -0.001278     -0.003255
     10.13833      5.88582     -0.06408         0.001882     -0.002059      0.001012
      1.69074      5.88666      0.01062         0.000403      0.005097      0.000094
      3.40540      5.88070      0.06876         0.000868     -0.001602      0.000038
      0.81844      7.35000     -0.00826         0.001140     -0.000000      0.001343
      2.56559      7.35000      0.03888         0.001231     -0.000000      0.001369
     10.13833      8.81418     -0.06408         0.001882      0.002059      0.001012
      1.69074      8.81334      0.01062         0.000403     -0.005097      0.000094
      3.40540      8.81930      0.06876         0.000868      0.001602      0.000038
      0.81796     10.28949     -0.05329        -0.004231      0.000062     -0.006114
      2.55328     10.28552      0.07482         0.000233      0.001278     -0.003255
      5.07413     -0.02085      0.12121         0.002574     -0.000229      0.001247
      6.81418     -0.01262     -0.00576        -0.002983      0.003445     -0.001193
      8.48965      0.00093     -0.08154         0.000356     -0.004417     -0.002584
      5.91610      1.47000      0.08853         0.001348     -0.000000      0.004952
      7.65464      1.47000     -0.00004        -0.002926     -0.000000      0.002891
      5.07413      2.96085      0.12121         0.002574      0.000229      0.001247
      6.81418      2.95262     -0.00576        -0.002983     -0.003445     -0.001193
      8.48965      2.93907     -0.08154         0.000356      0.004417     -0.002584
      5.91380      4.41450      0.07706        -0.001564      0.000023     -0.003231
      7.64872      4.41043     -0.05709         0.003224     -0.000147     -0.003586
      5.06129      5.88065      0.07081         0.001467     -0.000544      0.000556
      6.77579      5.88662      0.01098        -0.002565      0.005134      0.002497
      8.48811      5.88567     -0.06595         0.000844     -0.002990      0.000656
      5.90146      7.35000      0.04327        -0.000175     -0.000000      0.008496
      7.64820      7.35000     -0.00597        -0.001792     -0.000000      0.005459
      5.06129      8.81935      0.07081         0.001467      0.000544      0.000556
      6.77579      8.81338      0.01098        -0.002565     -0.005134      0.002497
      8.48811      8.81433     -0.06595         0.000844      0.002990      0.000656
      5.91380     10.28550      0.07706        -0.001564     -0.000023     -0.003231
      7.64872     10.28957     -0.05709         0.003224      0.000147     -0.003586
      4.22695      1.47000      1.52391        -0.004642     -0.000000      0.003884
 -----------------------------------------------------------------------------------
    total drift:                               -0.018971     -0.000000     -0.004433


--------------------------------------------------------------------------------------------------------



  FREE ENERGIE OF THE ION-ELECTRON SYSTEM (eV)
  ---------------------------------------------------
  free  energy   TOTEN  =      -254.12149754 eV

  energy  without entropy=     -254.12466486  energy(sigma->0) =     -254.12255331
 
 d Force = 0.4114546E-04[ 0.226E-04, 0.597E-04]  d Energy = 0.3683239E-04 0.431E-05
 d Force = 0.1882771E+00[ 0.188E+00, 0.188E+00]  d Ewald  = 0.1882771E+00-0.791E-08


--------------------------------------------------------------------------------------------------------


    POTLOK:  cpu time    1.05: real time    1.05


--------------------------------------------------------------------------------------------------------


 Conjugate gradient step on ions:
 trial-energy change:   -0.000037  1 .order   -0.000041   -0.000060   -0.000023
  (g-gl).g = 0.117E-03      g.g   = 0.108E-03  gl.gl    = 0.240E-03
 g(Force)  = 0.108E-03   g(Stress)= 0.000E+00 ortho     = 0.285E-05
 gamma     =   0.48920
 trial     =   0.54778
 opt step  =   0.88026  (harmonic =   0.88026) maximal distance =0.00144819
 next E    =  -254.121509   (d E  =  -0.00005)


--------------------------------------------------------------------------------------------------------


  
 reached required accuracy - stopping structural energy minimisation
     LOOP+:  cpu time   58.51: real time   58.54
    4ORBIT:  cpu time    0.00: real time    0.00

 total amount of memory used by VASP on root node   289588. kBytes
========================================================================

   base      :      30000. kBytes
   nonlr-proj:       1613. kBytes
   fftplans  :      22742. kBytes
   grid      :      54677. kBytes
   one-center:         67. kBytes
   wavefun   :     180489. kBytes
 
  
  
 General timing and accounting informations for this job:
 ========================================================
  
                  Total CPU time used (sec):     7552.416
                            User time (sec):     7526.560
                          System time (sec):       25.856
                         Elapsed time (sec):     7560.768
  
                   Maximum memory used (kb):      648724.
                   Average memory used (kb):           0.
  
                          Minor page faults:     15747516
                          Major page faults:            2
                 Voluntary context switches:         5560
