Warning: no access to tty (Bad file descriptor).
Thus no job control in this shell.
stty: standard input: Inappropriate ioctl for device
 running on    4 total cores
 distrk:  each k-point on    4 cores,    1 groups
 distr:  one band on    4 cores,    1 groups
 using from now: INCAR     
 vasp.5.3.3 18Dez12 (build Aug 26 2015 16:06:49) complex                        
  
 POSCAR found :  2 types and      41 ions
 scaLAPACK will be used
 LDA part: xc-table for Pade appr. of Perdew
 POSCAR, INCAR and KPOINTS ok, starting setup
 WARNING: small aliasing (wrap around) errors must be expected
 FFT: planning ...
 WAVECAR not read
 entering main loop
       N       E                     dE             d eps       ncg     rms          rms(c)
DAV:   1     0.870838927533E+03    0.87084E+03   -0.40433E+04  2040   0.104E+03
DAV:   2    -0.142769155998E+03   -0.10136E+04   -0.97684E+03  2816   0.236E+02
DAV:   3    -0.279297387934E+03   -0.13653E+03   -0.13504E+03  2312   0.958E+01
DAV:   4    -0.283886764975E+03   -0.45894E+01   -0.45613E+01  2664   0.182E+01
DAV:   5    -0.284016895795E+03   -0.13013E+00   -0.12978E+00  2776   0.266E+00    0.224E+01
DAV:   6    -0.262234842723E+03    0.21782E+02   -0.18080E+01  2320   0.103E+01    0.128E+01
DAV:   7    -0.254489222957E+03    0.77456E+01   -0.14856E+01  2400   0.937E+00    0.359E+00
DAV:   8    -0.253789745091E+03    0.69948E+00   -0.16336E+00  2416   0.318E+00    0.124E+00
DAV:   9    -0.253698377745E+03    0.91367E-01   -0.13721E-01  2400   0.105E+00    0.551E-01
DAV:  10    -0.253628965791E+03    0.69412E-01   -0.88999E-02  2376   0.640E-01    0.440E-01
DAV:  11    -0.253617193616E+03    0.11772E-01   -0.28116E-02  2296   0.526E-01    0.275E-01
DAV:  12    -0.253608730869E+03    0.84627E-02   -0.19717E-02  2304   0.323E-01    0.170E-01
DAV:  13    -0.253613812590E+03   -0.50817E-02   -0.27447E-02  2288   0.350E-01    0.118E-01
DAV:  14    -0.253615482920E+03   -0.16703E-02   -0.18739E-03  2400   0.103E-01    0.102E-01
DAV:  15    -0.253623649442E+03   -0.81665E-02   -0.41348E-02  2456   0.475E-01    0.222E-01
DAV:  16    -0.253620942864E+03    0.27066E-02   -0.34188E-03  2288   0.167E-01    0.129E-01
DAV:  17    -0.253623728739E+03   -0.27859E-02   -0.31519E-03  2112   0.141E-01    0.412E-02
DAV:  18    -0.253626746340E+03   -0.30176E-02   -0.67891E-04  2256   0.624E-02    0.345E-02
DAV:  19    -0.253627888179E+03   -0.11418E-02   -0.73766E-05  1648   0.211E-02    0.321E-02
DAV:  20    -0.253631239887E+03   -0.33517E-02   -0.63078E-04  1904   0.409E-02    0.134E-02
DAV:  21    -0.253631764882E+03   -0.52499E-03   -0.49672E-05  1648   0.152E-02    0.163E-02
DAV:  22    -0.253632036019E+03   -0.27114E-03   -0.37919E-05  1464   0.133E-02    0.120E-02
DAV:  23    -0.253632149540E+03   -0.11352E-03   -0.40658E-05  1528   0.130E-02    0.520E-03
DAV:  24    -0.253632188997E+03   -0.39458E-04   -0.17884E-05  1464   0.996E-03
   1 F= -.25363219E+03 E0= -.25362848E+03  d E =-.253632E+03  mag=     0.0010
 curvature:   0.00 expect dE= 0.000E+00 dE for cont linesearch  0.000E+00
 trial: gam= 0.00000 g(F)=  0.934E-01 g(S)=  0.000E+00 ort = 0.000E+00 (trialstep = 0.100E+01)
 search vector abs. value=  0.934E-01
 bond charge predicted
       N       E                     dE             d eps       ncg     rms          rms(c)
DAV:   1    -0.253688730574E+03   -0.56581E-01   -0.38293E+00  1984   0.656E+00    0.620E-01
DAV:   2    -0.253683757284E+03    0.49733E-02   -0.12326E-01  2400   0.117E+00    0.343E-01
DAV:   3    -0.253679524750E+03    0.42325E-02   -0.24222E-02  2336   0.478E-01    0.922E-02
DAV:   4    -0.253679506920E+03    0.17831E-04   -0.33650E-03  2360   0.181E-01    0.558E-02
DAV:   5    -0.253679500452E+03    0.64675E-05   -0.34026E-04  1944   0.545E-02
   2 F= -.25367950E+03 E0= -.25367445E+03  d E =-.473115E-01  mag=     0.0011
 trial-energy change:   -0.047311  1 .order   -0.046889   -0.093404   -0.000374
 step:   1.0039(harm=  1.0040)  dis= 0.01610  next Energy=  -253.679501 (dE=-0.473E-01)
 bond charge predicted
       N       E                     dE             d eps       ncg     rms          rms(c)
DAV:   1    -0.253679507991E+03   -0.10715E-05   -0.85759E-05  1376   0.326E-02    0.113E-02
DAV:   2    -0.253679512909E+03   -0.49183E-05   -0.13714E-05  1344   0.128E-02
   3 F= -.25367951E+03 E0= -.25367446E+03  d E =-.473239E-01  mag=     0.0013
 curvature:  -0.50 expect dE=-0.518E-01 dE for cont linesearch -0.138E-06
 trial: gam= 1.10625 g(F)=  0.103E+00 g(S)=  0.000E+00 ort =-0.160E-03 (trialstep = 0.431E+00)
 search vector abs. value=  0.217E+00
 bond charge predicted
       N       E                     dE             d eps       ncg     rms          rms(c)
DAV:   1    -0.253723517704E+03   -0.44010E-01   -0.80535E-01  2010   0.296E+00    0.295E-01
DAV:   2    -0.253722302181E+03    0.12155E-02   -0.22018E-02  2552   0.471E-01    0.164E-01
DAV:   3    -0.253721694312E+03    0.60787E-03   -0.28723E-03  2400   0.165E-01    0.959E-02
DAV:   4    -0.253721539095E+03    0.15522E-03   -0.10889E-03  2264   0.908E-02    0.269E-02
DAV:   5    -0.253721538679E+03    0.41608E-06   -0.12677E-04  1480   0.379E-02
   4 F= -.25372154E+03 E0= -.25371608E+03  d E =-.420258E-01  mag=     0.0024
 ZBRENT: can't locate minimum, use default step
 trial-energy change:   -0.042026  1 .order   -0.041607   -0.044341   -0.038873
 step:   1.7221(harm=  3.4910)  dis= 0.02537  next Energy=  -253.859284 (dE=-0.180E+00)
 bond charge predicted
       N       E                     dE             d eps       ncg     rms          rms(c)
DAV:   1    -0.253825566552E+03   -0.10403E+00   -0.74093E+00  1976   0.890E+00    0.835E-01
DAV:   2    -0.253815753773E+03    0.98128E-02   -0.21309E-01  2528   0.140E+00    0.503E-01
DAV:   3    -0.253810169210E+03    0.55846E-02   -0.26928E-02  2392   0.477E-01    0.300E-01
DAV:   4    -0.253808370550E+03    0.17987E-02   -0.10844E-02  2304   0.281E-01    0.867E-02
DAV:   5    -0.253808378097E+03   -0.75471E-05   -0.13326E-03  2296   0.116E-01    0.535E-02
DAV:   6    -0.253808391653E+03   -0.13556E-04   -0.13333E-04  1608   0.364E-02
   5 F= -.25380839E+03 E0= -.25380388E+03  d E =-.128879E+00  mag=     0.0111
 curvature:  -2.45 expect dE=-0.403E+00 dE for cont linesearch -0.174E-01
 ZBRENT: increasing intervall
 opt :   4.3053  next Energy=  -253.778244 (dE=-0.987E-01)
 bond charge predicted
       N       E                     dE             d eps       ncg     rms          rms(c)
DAV:   1    -0.253715137761E+03    0.93240E-01   -0.29698E+01  2012   0.179E+01    0.154E+00
DAV:   2    -0.253695465170E+03    0.19673E-01   -0.82732E-01  2512   0.271E+00    0.890E-01
DAV:   3    -0.253677787375E+03    0.17678E-01   -0.73360E-02  2432   0.827E-01    0.506E-01
DAV:   4    -0.253673682363E+03    0.41050E-02   -0.28065E-02  2368   0.441E-01    0.196E-01
DAV:   5    -0.253673780530E+03   -0.98167E-04   -0.31448E-03  2320   0.176E-01    0.114E-01
DAV:   6    -0.253673903017E+03   -0.12249E-03   -0.47618E-04  2408   0.643E-02    0.386E-02
DAV:   7    -0.253673951243E+03   -0.48226E-04   -0.14283E-04  1608   0.325E-02
   6 F= -.25367395E+03 E0= -.25367390E+03  d E =0.556167E-02  mag=     0.0350
 curvature:   4.24 expect dE= 0.633E+01 dE for cont linesearch  0.502E+00
 ZBRENT: bracketing found
 ZBRENT: interpolating
 opt :   2.2305  next Energy=  -253.818384 (dE=-0.139E+00)
 bond charge predicted
       N       E                     dE             d eps       ncg     rms          rms(c)
DAV:   1    -0.253853360125E+03   -0.17946E+00   -0.19070E+01  1968   0.145E+01    0.128E+00
DAV:   2    -0.253835963305E+03    0.17397E-01   -0.55511E-01  2560   0.222E+00    0.767E-01
DAV:   3    -0.253823564922E+03    0.12398E-01   -0.54365E-02  2432   0.687E-01    0.460E-01
DAV:   4    -0.253817823027E+03    0.57419E-02   -0.26577E-02  2336   0.422E-01    0.144E-01
DAV:   5    -0.253816720367E+03    0.11027E-02   -0.39230E-03  2320   0.181E-01    0.108E-01
DAV:   6    -0.253815230074E+03    0.14903E-02   -0.21235E-03  2320   0.798E-02    0.104E-01
DAV:   7    -0.253814572069E+03    0.65800E-03   -0.21901E-04  1920   0.253E-02    0.108E-01
DAV:   8    -0.253817904698E+03   -0.33326E-02   -0.11126E-02  2216   0.128E-01    0.746E-02
DAV:   9    -0.253819778521E+03   -0.18738E-02   -0.48177E-03  2312   0.892E-02    0.400E-02
DAV:  10    -0.253819826871E+03   -0.48350E-04   -0.32742E-04  1658   0.389E-02
   7 F= -.25381983E+03 E0= -.25381631E+03  d E =-.140314E+00  mag=    -0.0022
 curvature:  -0.08 expect dE=-0.233E-01 dE for cont linesearch -0.373E-04
 trial: gam= 2.49921 g(F)=  0.276E+00 g(S)=  0.000E+00 ort = 0.981E-02 (trialstep = 0.102E+00)
 search vector abs. value=  0.168E+01
 bond charge predicted
       N       E                     dE             d eps       ncg     rms          rms(c)
DAV:   1    -0.253851337868E+03   -0.31559E-01   -0.26801E-01  2010   0.162E+00    0.166E-01
DAV:   2    -0.253851201177E+03    0.13669E-03   -0.97610E-03  2424   0.275E-01    0.899E-02
DAV:   3    -0.253851021669E+03    0.17951E-03   -0.11711E-03  2384   0.956E-02    0.542E-02
DAV:   4    -0.253851075421E+03   -0.53752E-04   -0.35318E-04  2168   0.514E-02
   8 F= -.25385108E+03 E0= -.25384793E+03  d E =-.312485E-01  mag=     0.0033
 ZBRENT: can't locate minimum, use default step
 trial-energy change:   -0.031249  1 .order   -0.029837   -0.030683   -0.028990
 step:   0.4084(harm=  1.8505)  dis= 0.01801  next Energy=  -254.097892 (dE=-0.278E+00)
 bond charge predicted
       N       E                     dE             d eps       ncg     rms          rms(c)
DAV:   1    -0.253934067217E+03   -0.83046E-01   -0.24287E+00  1968   0.487E+00    0.500E-01
DAV:   2    -0.253929497705E+03    0.45695E-02   -0.87934E-02  2512   0.818E-01    0.272E-01
DAV:   3    -0.253927548337E+03    0.19494E-02   -0.96314E-03  2416   0.280E-01    0.171E-01
DAV:   4    -0.253927022688E+03    0.52565E-03   -0.32613E-03  2368   0.154E-01    0.713E-02
DAV:   5    -0.253927044789E+03   -0.22101E-04   -0.40217E-04  2080   0.635E-02
   9 F= -.25392704E+03 E0= -.25392555E+03  d E =-.107218E+00  mag=     0.0114
 curvature:  -1.65 expect dE=-0.374E+00 dE for cont linesearch -0.418E-01
 ZBRENT: increasing intervall
 opt :   1.0210  next Energy=  -254.005451 (dE=-0.186E+00)
 bond charge predicted
       N       E                     dE             d eps       ncg     rms          rms(c)
DAV:   1    -0.254022790176E+03   -0.95767E-01   -0.10013E+01  1968   0.978E+00    0.104E+00
DAV:   2    -0.253998077720E+03    0.24712E-01   -0.39077E-01  2528   0.164E+00    0.542E-01
DAV:   3    -0.253990183307E+03    0.78944E-02   -0.43282E-02  2384   0.575E-01    0.356E-01
DAV:   4    -0.253987716996E+03    0.24663E-02   -0.16691E-02  2368   0.318E-01    0.164E-01
DAV:   5    -0.253987901399E+03   -0.18440E-03   -0.20389E-03  2336   0.134E-01    0.992E-02
DAV:   6    -0.253987940094E+03   -0.38695E-04   -0.13771E-03  2254   0.603E-02    0.615E-02
DAV:   7    -0.253987849888E+03    0.90206E-04   -0.12621E-03  1968   0.403E-02    0.756E-02
DAV:   8    -0.253987878026E+03   -0.28138E-04   -0.67574E-03  2098   0.777E-02    0.424E-02
DAV:   9    -0.253987928570E+03   -0.50544E-04   -0.88160E-04  2048   0.334E-02
  10 F= -.25398793E+03 E0= -.25398853E+03  d E =-.168102E+00  mag=     0.0022
 curvature:  -3.11 expect dE=-0.932E+00 dE for cont linesearch -0.922E-03
 trial: gam= 0.54921 g(F)=  0.300E+00 g(S)=  0.000E+00 ort =-0.223E-01 (trialstep = 0.286E+00)
 search vector abs. value=  0.783E+00
 bond charge predicted
       N       E                     dE             d eps       ncg     rms          rms(c)
DAV:   1    -0.254058335126E+03   -0.70457E-01   -0.16301E+00  1972   0.425E+00    0.480E-01
DAV:   2    -0.254052280124E+03    0.60550E-02   -0.59766E-02  2576   0.697E-01    0.251E-01
DAV:   3    -0.254050601208E+03    0.16789E-02   -0.56824E-03  2400   0.246E-01    0.151E-01
DAV:   4    -0.254050097659E+03    0.50355E-03   -0.32593E-03  2320   0.155E-01    0.475E-02
DAV:   5    -0.254050172487E+03   -0.74828E-04   -0.32437E-04  1798   0.608E-02
  11 F= -.25405017E+03 E0= -.25405246E+03  d E =-.622439E-01  mag=     0.0103
 trial-energy change:   -0.062244  1 .order   -0.061977   -0.082241   -0.041713
 step:   0.5801(harm=  0.5801)  dis= 0.01999  next Energy=  -254.071373 (dE=-0.834E-01)
 bond charge predicted
       N       E                     dE             d eps       ncg     rms          rms(c)
DAV:   1    -0.254072740671E+03   -0.22643E-01   -0.17105E+00  1970   0.437E+00    0.421E-01
DAV:   2    -0.254069618091E+03    0.31226E-02   -0.50682E-02  2590   0.688E-01    0.235E-01
DAV:   3    -0.254068214952E+03    0.14031E-02   -0.37132E-03  2400   0.216E-01    0.122E-01
DAV:   4    -0.254068031628E+03    0.18332E-03   -0.19666E-03  2336   0.122E-01    0.427E-02
DAV:   5    -0.254068093338E+03   -0.61710E-04   -0.17416E-04  1656   0.448E-02
  12 F= -.25406809E+03 E0= -.25407150E+03  d E =-.801648E-01  mag=     0.0112
 curvature:  -0.79 expect dE=-0.380E-01 dE for cont linesearch -0.949E-03
 ZBRENT: interpolating
 opt :   0.5290  next Energy=  -254.068878 (dE=-0.809E-01)
 bond charge predicted
       N       E                     dE             d eps       ncg     rms          rms(c)
DAV:   1    -0.254069050148E+03   -0.10185E-02   -0.51480E-02  1972   0.760E-01    0.739E-02
DAV:   2    -0.254069032743E+03    0.17405E-04   -0.15690E-03  2600   0.121E-01    0.408E-02
DAV:   3    -0.254069012258E+03    0.20485E-04   -0.11740E-04  1544   0.387E-02
  13 F= -.25406901E+03 E0= -.25407245E+03  d E =-.810837E-01  mag=     0.0161
 curvature:  -0.65 expect dE=-0.315E-01 dE for cont linesearch -0.285E-06
 trial: gam=-0.04934 g(F)=  0.484E-01 g(S)=  0.000E+00 ort =-0.585E-03 (trialstep = 0.334E+00)
 search vector abs. value=  0.504E-01
 bond charge predicted
       N       E                     dE             d eps       ncg     rms          rms(c)
DAV:   1    -0.254081841252E+03   -0.12809E-01   -0.24272E-01  1976   0.169E+00    0.145E-01
DAV:   2    -0.254081492688E+03    0.34856E-03   -0.61297E-03  2400   0.271E-01    0.808E-02
DAV:   3    -0.254081277331E+03    0.21536E-03   -0.11663E-03  2406   0.101E-01    0.337E-02
DAV:   4    -0.254081219669E+03    0.57662E-04   -0.20254E-04  1824   0.387E-02
  14 F= -.25408122E+03 E0= -.25408446E+03  d E =-.122074E-01  mag=     0.0305
 trial-energy change:   -0.012207  1 .order   -0.012311   -0.016197   -0.008424
 step:   0.6969(harm=  0.6969)  dis= 0.01262  next Energy=  -254.085887 (dE=-0.169E-01)
 bond charge predicted
       N       E                     dE             d eps       ncg     rms          rms(c)
DAV:   1    -0.254086265829E+03   -0.49885E-02   -0.28498E-01  2020   0.183E+00    0.161E-01
DAV:   2    -0.254085616764E+03    0.64906E-03   -0.75126E-03  2446   0.296E-01    0.907E-02
DAV:   3    -0.254085110283E+03    0.50648E-03   -0.15641E-03  2332   0.111E-01    0.420E-02
DAV:   4    -0.254084975205E+03    0.13508E-03   -0.40201E-04  2040   0.453E-02    0.289E-02
DAV:   5    -0.254084865509E+03    0.10970E-03   -0.46179E-04  1832   0.302E-02    0.253E-02
DAV:   6    -0.254084851484E+03    0.14025E-04   -0.16819E-04  1744   0.176E-02
  15 F= -.25408485E+03 E0= -.25408753E+03  d E =-.158392E-01  mag=     0.0726
 curvature:  -0.36 expect dE=-0.891E-02 dE for cont linesearch -0.125E-05
 trial: gam= 0.49886 g(F)=  0.246E-01 g(S)=  0.000E+00 ort = 0.417E-03 (trialstep = 0.407E+00)
 search vector abs. value=  0.375E-01
 bond charge predicted
       N       E                     dE             d eps       ncg     rms          rms(c)
DAV:   1    -0.254092678287E+03   -0.78128E-02   -0.22796E-01  2056   0.166E+00    0.132E-01
DAV:   2    -0.254092281256E+03    0.39703E-03   -0.48418E-03  2398   0.230E-01    0.805E-02
DAV:   3    -0.254091864342E+03    0.41691E-03   -0.12484E-03  2366   0.908E-02    0.390E-02
DAV:   4    -0.254092074600E+03   -0.21026E-03   -0.44333E-04  1726   0.398E-02    0.269E-02
DAV:   5    -0.254092443937E+03   -0.36934E-03   -0.36807E-04  1766   0.271E-02    0.226E-02
DAV:   6    -0.254092853548E+03   -0.40961E-03   -0.26483E-04  1758   0.208E-02    0.194E-02
DAV:   7    -0.254093493171E+03   -0.63962E-03   -0.51964E-04  1878   0.262E-02    0.153E-02
DAV:   8    -0.254094747928E+03   -0.12548E-02   -0.25409E-03  2054   0.546E-02    0.687E-03
DAV:   9    -0.254095115831E+03   -0.36790E-03   -0.16641E-04  1896   0.221E-02    0.494E-03
DAV:  10    -0.254095346393E+03   -0.23056E-03   -0.11695E-04  1704   0.142E-02    0.224E-03
DAV:  11    -0.254095429195E+03   -0.82803E-04   -0.11742E-05  1672   0.722E-03
  16 F= -.25409543E+03 E0= -.25409695E+03  d E =-.105777E-01  mag=     0.1892
 trial-energy change:   -0.010578  1 .order   -0.007862   -0.010088   -0.005636
 step:   0.5006(harm=  0.9223)  dis= 0.00821  next Energy=  -254.096111 (dE=-0.113E-01)
 bond charge predicted
       N       E                     dE             d eps       ncg     rms          rms(c)
DAV:   1    -0.254096655317E+03   -0.13089E-02   -0.12082E-02  2200   0.382E-01    0.297E-02
DAV:   2    -0.254096646589E+03    0.87277E-05   -0.22423E-04  1808   0.527E-02
  17 F= -.25409665E+03 E0= -.25409809E+03  d E =-.117951E-01  mag=     0.1915
 curvature:  -0.23 expect dE=-0.205E-02 dE for cont linesearch -0.788E-03
 ZBRENT: increasing intervall
 opt :   0.6879  next Energy=  -254.098293 (dE=-0.134E-01)
 bond charge predicted
       N       E                     dE             d eps       ncg     rms          rms(c)
DAV:   1    -0.254098229882E+03   -0.15746E-02   -0.47572E-02  1984   0.760E-01    0.645E-02
DAV:   2    -0.254098134044E+03    0.95837E-04   -0.92330E-04  2454   0.103E-01
  18 F= -.25409813E+03 E0= -.25409942E+03  d E =-.132826E-01  mag=     0.1973
 curvature:  -0.48 expect dE=-0.416E-02 dE for cont linesearch -0.471E-03
 ZBRENT: increasing intervall
 opt :   1.0625  next Energy=  -254.098429 (dE=-0.136E-01)
 bond charge predicted
       N       E                     dE             d eps       ncg     rms          rms(c)
DAV:   1    -0.254098468690E+03   -0.23881E-03   -0.19104E-01  1992   0.152E+00    0.132E-01
DAV:   2    -0.254098080425E+03    0.38827E-03   -0.37445E-03  2416   0.205E-01    0.771E-02
DAV:   3    -0.254097719898E+03    0.36053E-03   -0.67471E-04  2432   0.793E-02    0.311E-02
DAV:   4    -0.254097821834E+03   -0.10194E-03   -0.12775E-04  1648   0.313E-02    0.156E-02
DAV:   5    -0.254097947044E+03   -0.12521E-03   -0.39320E-05  1416   0.156E-02    0.989E-03
DAV:   6    -0.254098060912E+03   -0.11387E-03   -0.22998E-05  1536   0.918E-03    0.681E-03
DAV:   7    -0.254098185453E+03   -0.12454E-03   -0.23834E-05  1520   0.745E-03    0.507E-03
DAV:   8    -0.254098359492E+03   -0.17404E-03   -0.52381E-05  1656   0.879E-03    0.299E-03
DAV:   9    -0.254098444894E+03   -0.85401E-04   -0.18894E-05  1624   0.611E-03
  19 F= -.25409844E+03 E0= -.25409934E+03  d E =-.135934E-01  mag=     0.2417
 curvature:  -0.30 expect dE=-0.569E-02 dE for cont linesearch -0.155E-03
 ZBRENT: bracketing found
 ZBRENT: interpolating
 opt :   0.9051  next Energy=  -254.098790 (dE=-0.139E-01)
 bond charge predicted
       N       E                     dE             d eps       ncg     rms          rms(c)
DAV:   1    -0.254098878461E+03   -0.51897E-03   -0.34283E-02  2196   0.643E-01    0.514E-02
DAV:   2    -0.254098830208E+03    0.48253E-04   -0.69164E-04  2392   0.892E-02
  20 F= -.25409883E+03 E0= -.25409988E+03  d E =-.139787E-01  mag=     0.2379
 curvature:  -0.67 expect dE=-0.912E-02 dE for cont linesearch -0.637E-06
 trial: gam= 0.59131 g(F)=  0.135E-01 g(S)=  0.000E+00 ort =-0.189E-03 (trialstep = 0.507E+00)
 search vector abs. value=  0.264E-01
 bond charge predicted
       N       E                     dE             d eps       ncg     rms          rms(c)
DAV:   1    -0.254104153625E+03   -0.52752E-02   -0.22928E-01  1980   0.165E+00    0.113E-01
DAV:   2    -0.254104178462E+03   -0.24837E-04   -0.39710E-03  2296   0.204E-01    0.666E-02
DAV:   3    -0.254103906477E+03    0.27199E-03   -0.55623E-04  2294   0.724E-02    0.254E-02
DAV:   4    -0.254103928259E+03   -0.21783E-04   -0.89708E-05  1654   0.273E-02
  21 F= -.25410393E+03 E0= -.25410493E+03  d E =-.509805E-02  mag=     0.2513
 trial-energy change:   -0.005098  1 .order   -0.005316   -0.006806   -0.003826
 step:   1.1569(harm=  1.1569)  dis= 0.01740  next Energy=  -254.106601 (dE=-0.777E-02)
 bond charge predicted
       N       E                     dE             d eps       ncg     rms          rms(c)
DAV:   1    -0.254106411822E+03   -0.25053E-02   -0.37626E-01  1968   0.212E+00    0.150E-01
DAV:   2    -0.254106124366E+03    0.28746E-03   -0.66866E-03  2376   0.263E-01    0.900E-02
DAV:   3    -0.254105579553E+03    0.54481E-03   -0.94493E-04  2496   0.941E-02    0.375E-02
DAV:   4    -0.254105714518E+03   -0.13497E-03   -0.18430E-04  1784   0.363E-02    0.190E-02
DAV:   5    -0.254105903033E+03   -0.18852E-03   -0.39546E-05  1480   0.155E-02    0.119E-02
DAV:   6    -0.254106093786E+03   -0.19075E-03   -0.27390E-05  1608   0.967E-03    0.721E-03
DAV:   7    -0.254106305014E+03   -0.21123E-03   -0.28726E-05  1630   0.815E-03    0.485E-03
DAV:   8    -0.254106488805E+03   -0.18379E-03   -0.28236E-05  1672   0.722E-03    0.291E-03
DAV:   9    -0.254106605159E+03   -0.11635E-03   -0.17130E-05  1632   0.562E-03    0.155E-03
DAV:  10    -0.254106659003E+03   -0.53844E-04   -0.10824E-05  1638   0.427E-03
  22 F= -.25410666E+03 E0= -.25410745E+03  d E =-.782880E-02  mag=     0.3020
 curvature:  -1.14 expect dE=-0.786E-02 dE for cont linesearch -0.117E-05
 trial: gam= 0.40584 g(F)=  0.690E-02 g(S)=  0.000E+00 ort = 0.165E-03 (trialstep = 0.637E+00)
 search vector abs. value=  0.114E-01
 bond charge predicted
       N       E                     dE             d eps       ncg     rms          rms(c)
DAV:   1    -0.254109686106E+03   -0.30809E-02   -0.17955E-01  1976   0.146E+00    0.123E-01
DAV:   2    -0.254109305106E+03    0.38100E-03   -0.41702E-03  2316   0.224E-01    0.671E-02
DAV:   3    -0.254109183796E+03    0.12131E-03   -0.69098E-04  2290   0.793E-02    0.316E-02
DAV:   4    -0.254109220997E+03   -0.37202E-04   -0.87653E-05  1600   0.288E-02
  23 F= -.25410922E+03 E0= -.25410990E+03  d E =-.256199E-02  mag=     0.3131
 trial-energy change:   -0.002562  1 .order   -0.002683   -0.004436   -0.000930
 step:   0.8055(harm=  0.8055)  dis= 0.00711  next Energy=  -254.109465 (dE=-0.281E-02)
 bond charge predicted
       N       E                     dE             d eps       ncg     rms          rms(c)
DAV:   1    -0.254109400164E+03   -0.21637E-03   -0.12492E-02  2092   0.386E-01    0.345E-02
DAV:   2    -0.254109368475E+03    0.31689E-04   -0.28697E-04  1848   0.597E-02
  24 F= -.25410937E+03 E0= -.25411002E+03  d E =-.270947E-02  mag=     0.3171
 curvature:  -0.66 expect dE=-0.126E-02 dE for cont linesearch -0.579E-06
 trial: gam= 0.28382 g(F)=  0.192E-02 g(S)=  0.000E+00 ort = 0.100E-03 (trialstep = 0.670E+00)
 search vector abs. value=  0.289E-02
 bond charge predicted
       N       E                     dE             d eps       ncg     rms          rms(c)
DAV:   1    -0.254110254008E+03   -0.85384E-03   -0.51820E-02  1972   0.779E-01    0.656E-02
DAV:   2    -0.254110194227E+03    0.59782E-04   -0.11749E-03  2464   0.113E-01    0.386E-02
DAV:   3    -0.254110134376E+03    0.59851E-04   -0.14102E-04  1544   0.414E-02
  25 F= -.25411013E+03 E0= -.25411071E+03  d E =-.765901E-03  mag=     0.3251
 trial-energy change:   -0.000766  1 .order   -0.000839   -0.001304   -0.000375
 step:   0.9407(harm=  0.9407)  dis= 0.00337  next Energy=  -254.110283 (dE=-0.915E-03)
 bond charge predicted
       N       E                     dE             d eps       ncg     rms          rms(c)
DAV:   1    -0.254110253650E+03   -0.59423E-04   -0.83523E-03  2128   0.314E-01    0.278E-02
DAV:   2    -0.254110264585E+03   -0.10935E-04   -0.15768E-04  1568   0.436E-02
  26 F= -.25411026E+03 E0= -.25411081E+03  d E =-.896110E-03  mag=     0.3297
 curvature:  -0.70 expect dE=-0.104E-02 dE for cont linesearch -0.613E-06
 trial: gam= 0.72472 g(F)=  0.149E-02 g(S)=  0.000E+00 ort = 0.504E-04 (trialstep = 0.679E+00)
 search vector abs. value=  0.308E-02
 bond charge predicted
       N       E                     dE             d eps       ncg     rms          rms(c)
DAV:   1    -0.254111098333E+03   -0.84468E-03   -0.54697E-02  1972   0.789E-01    0.641E-02
DAV:   2    -0.254111083136E+03    0.15197E-04   -0.12121E-03  2456   0.114E-01    0.393E-02
DAV:   3    -0.254111035873E+03    0.47264E-04   -0.14816E-04  1456   0.430E-02
  27 F= -.25411104E+03 E0= -.25411150E+03  d E =-.771288E-03  mag=     0.3368
 trial-energy change:   -0.000771  1 .order   -0.000792   -0.001038   -0.000546
 step:   1.4329(harm=  1.4329)  dis= 0.00426  next Energy=  -254.111359 (dE=-0.109E-02)
 bond charge predicted
       N       E                     dE             d eps       ncg     rms          rms(c)
DAV:   1    -0.254111466425E+03   -0.38329E-03   -0.68026E-02  1976   0.879E-01    0.716E-02
DAV:   2    -0.254111456401E+03    0.10024E-04   -0.14730E-03  2356   0.127E-01    0.439E-02
DAV:   3    -0.254111393643E+03    0.62758E-04   -0.19047E-04  1538   0.490E-02
  28 F= -.25411139E+03 E0= -.25411175E+03  d E =-.112906E-02  mag=     0.3439
 curvature:  -1.45 expect dE=-0.224E-02 dE for cont linesearch -0.131E-05
 trial: gam= 0.98720 g(F)=  0.155E-02 g(S)=  0.000E+00 ort = 0.528E-04 (trialstep = 0.549E+00)
 search vector abs. value=  0.466E-02
 bond charge predicted
       N       E                     dE             d eps       ncg     rms          rms(c)
DAV:   1    -0.254112181423E+03   -0.72502E-03   -0.57264E-02  1972   0.791E-01    0.666E-02
DAV:   2    -0.254112195848E+03   -0.14425E-04   -0.12548E-03  2552   0.112E-01    0.413E-02
DAV:   3    -0.254112186681E+03    0.91674E-05   -0.13983E-04  1448   0.417E-02
  29 F= -.25411219E+03 E0= -.25411250E+03  d E =-.793038E-03  mag=     0.3483
 trial-energy change:   -0.000793  1 .order   -0.000681   -0.000880   -0.000482
 step:   1.2154(harm=  1.2154)  dis= 0.00406  next Energy=  -254.112367 (dE=-0.973E-03)
 bond charge predicted
       N       E                     dE             d eps       ncg     rms          rms(c)
DAV:   1    -0.254112529229E+03   -0.33338E-03   -0.83902E-02  1972   0.959E-01    0.790E-02
DAV:   2    -0.254112531768E+03   -0.25400E-05   -0.17797E-03  2504   0.134E-01    0.492E-02
DAV:   3    -0.254112492504E+03    0.39265E-04   -0.20858E-04  1512   0.510E-02
  30 F= -.25411249E+03 E0= -.25411277E+03  d E =-.109886E-02  mag=     0.3517
 curvature:  -1.77 expect dE=-0.271E-02 dE for cont linesearch -0.314E-05
 trial: gam= 1.12890 g(F)=  0.153E-02 g(S)=  0.000E+00 ort =-0.910E-04 (trialstep = 0.438E+00)
 search vector abs. value=  0.726E-02
 bond charge predicted
       N       E                     dE             d eps       ncg     rms          rms(c)
DAV:   1    -0.254113119399E+03   -0.58763E-03   -0.57442E-02  1972   0.774E-01    0.653E-02
DAV:   2    -0.254113126475E+03   -0.70760E-05   -0.11283E-03  2480   0.108E-01    0.411E-02
DAV:   3    -0.254113114546E+03    0.11930E-04   -0.13985E-04  1464   0.408E-02
  31 F= -.25411311E+03 E0= -.25411338E+03  d E =-.622042E-03  mag=     0.3525
 trial-energy change:   -0.000622  1 .order   -0.000536   -0.000626   -0.000446
 step:   1.5199(harm=  1.5199)  dis= 0.00752  next Energy=  -254.113580 (dE=-0.109E-02)
 bond charge predicted
       N       E                     dE             d eps       ncg     rms          rms(c)
DAV:   1    -0.254113961861E+03   -0.83539E-03   -0.34931E-01  1968   0.191E+00    0.159E-01
DAV:   2    -0.254113875012E+03    0.86849E-04   -0.69024E-03  2472   0.266E-01    0.989E-02
DAV:   3    -0.254113707367E+03    0.16764E-03   -0.94364E-04  2288   0.100E-01    0.229E-02
DAV:   4    -0.254113737272E+03   -0.29906E-04   -0.16703E-04  1688   0.400E-02
  32 F= -.25411374E+03 E0= -.25411396E+03  d E =-.124477E-02  mag=     0.3507
 curvature:  -3.86 expect dE=-0.966E-02 dE for cont linesearch -0.193E-05
 trial: gam= 1.46321 g(F)=  0.250E-02 g(S)=  0.000E+00 ort =-0.603E-04 (trialstep = 0.266E+00)
 search vector abs. value=  0.179E-01
 bond charge predicted
       N       E                     dE             d eps       ncg     rms          rms(c)
DAV:   1    -0.254114408195E+03   -0.70083E-03   -0.52215E-02  1976   0.730E-01    0.632E-02
DAV:   2    -0.254114401970E+03    0.62249E-05   -0.99801E-04  2472   0.100E-01
  33 F= -.25411440E+03 E0= -.25411463E+03  d E =-.664698E-03  mag=     0.3501
 ZBRENT: can't locate minimum, use default step
 trial-energy change:   -0.000665  1 .order   -0.000650   -0.000642   -0.000658
 step:   1.0632(harm=  1.0632)  dis= 0.00901  next Energy=  -254.116431 (dE=-0.269E-02)
 bond charge predicted
       N       E                     dE             d eps       ncg     rms          rms(c)
DAV:   1    -0.254116017986E+03   -0.16098E-02   -0.45819E-01  1968   0.217E+00    0.184E-01
DAV:   2    -0.254115897764E+03    0.12022E-03   -0.84588E-03  2480   0.292E-01    0.115E-01
DAV:   3    -0.254115698054E+03    0.19971E-03   -0.12403E-03  2288   0.113E-01    0.247E-02
DAV:   4    -0.254115715327E+03   -0.17272E-04   -0.22886E-04  1702   0.457E-02
  34 F= -.25411572E+03 E0= -.25411592E+03  d E =-.197805E-02  mag=     0.3477
 curvature:  -5.97 expect dE=-0.100E-01 dE for cont linesearch -0.270E-03
 ZBRENT: increasing intervall
 opt :   2.6579  next Energy=  -254.114637 (dE=-0.900E-03)
 bond charge predicted
       N       E                     dE             d eps       ncg     rms          rms(c)
DAV:   1    -0.254116931271E+03   -0.12332E-02   -0.18711E+00  1968   0.437E+00    0.368E-01
DAV:   2    -0.254116400229E+03    0.53104E-03   -0.36006E-02  2472   0.601E-01    0.231E-01
DAV:   3    -0.254115486175E+03    0.91405E-03   -0.52530E-03  2272   0.232E-01    0.469E-02
DAV:   4    -0.254115536192E+03   -0.50017E-04   -0.10185E-03  2252   0.949E-02    0.272E-02
DAV:   5    -0.254115578286E+03   -0.42094E-04   -0.40548E-05  1528   0.224E-02
  35 F= -.25411558E+03 E0= -.25411570E+03  d E =-.184101E-02  mag=     0.3437
 curvature:  23.85 expect dE= 0.205E+00 dE for cont linesearch  0.207E-02
 ZBRENT: bracketing found
 ZBRENT: interpolating
 opt :   1.7316  next Energy=  -254.116016 (dE=-0.228E-02)
 bond charge predicted
       N       E                     dE             d eps       ncg     rms          rms(c)
DAV:   1    -0.254116645369E+03   -0.11092E-02   -0.62946E-01  1968   0.253E+00    0.211E-01
DAV:   2    -0.254116410010E+03    0.23536E-03   -0.11904E-02  2424   0.346E-01    0.131E-01
DAV:   3    -0.254116107212E+03    0.30280E-03   -0.17164E-03  2296   0.133E-01    0.260E-02
DAV:   4    -0.254116119387E+03   -0.12175E-04   -0.32570E-04  1840   0.543E-02
  36 F= -.25411612E+03 E0= -.25411631E+03  d E =-.238211E-02  mag=     0.3441
 curvature:  -3.46 expect dE=-0.117E-01 dE for cont linesearch -0.104E-04
 trial: gam= 1.30961 g(F)=  0.339E-02 g(S)=  0.000E+00 ort = 0.232E-03 (trialstep = 0.288E+00)
 search vector abs. value=  0.347E-01
 bond charge predicted
       N       E                     dE             d eps       ncg     rms          rms(c)
DAV:   1    -0.254117095605E+03   -0.98839E-03   -0.11861E-01  1968   0.110E+00    0.904E-02
DAV:   2    -0.254117038535E+03    0.57070E-04   -0.23493E-03  2432   0.154E-01    0.561E-02
DAV:   3    -0.254116947279E+03    0.91256E-04   -0.32086E-04  1904   0.584E-02
  37 F= -.25411695E+03 E0= -.25411722E+03  d E =-.827892E-03  mag=     0.3417
 trial-energy change:   -0.000828  1 .order   -0.000836   -0.001065   -0.000608
 step:   0.6721(harm=  0.6721)  dis= 0.00804  next Energy=  -254.117360 (dE=-0.124E-02)
 bond charge predicted
       N       E                     dE             d eps       ncg     rms          rms(c)
DAV:   1    -0.254117819022E+03   -0.78049E-03   -0.21329E-01  1968   0.148E+00    0.127E-01
DAV:   2    -0.254117755744E+03    0.63278E-04   -0.41313E-03  2480   0.205E-01    0.795E-02
DAV:   3    -0.254117618247E+03    0.13750E-03   -0.60334E-04  2280   0.788E-02    0.178E-02
DAV:   4    -0.254117643558E+03   -0.25311E-04   -0.10411E-04  1580   0.315E-02
  38 F= -.25411764E+03 E0= -.25411805E+03  d E =-.152417E-02  mag=     0.3366
 curvature:  -3.15 expect dE=-0.364E-02 dE for cont linesearch -0.928E-04
 ZBRENT: increasing intervall
 opt :   1.4396  next Energy=  -254.117575 (dE=-0.146E-02)
 bond charge predicted
       N       E                     dE             d eps       ncg     rms          rms(c)
DAV:   1    -0.254118227747E+03   -0.60950E-03   -0.84829E-01  1968   0.294E+00    0.250E-01
DAV:   2    -0.254117908912E+03    0.31883E-03   -0.16769E-02  2448   0.412E-01    0.156E-01
DAV:   3    -0.254117365626E+03    0.54329E-03   -0.24150E-03  2248   0.157E-01    0.339E-02
DAV:   4    -0.254117442622E+03   -0.76996E-04   -0.43801E-04  2028   0.626E-02
  39 F= -.25411744E+03 E0= -.25411807E+03  d E =-.132323E-02  mag=     0.3275
 curvature:   2.31 expect dE= 0.117E-01 dE for cont linesearch  0.190E-03
 ZBRENT: bracketing found
 ZBRENT: interpolating
 opt :   0.9593  next Energy=  -254.117789 (dE=-0.167E-02)
 bond charge predicted
       N       E                     dE             d eps       ncg     rms          rms(c)
DAV:   1    -0.254118139239E+03   -0.77361E-03   -0.32946E-01  1968   0.183E+00    0.150E-01
DAV:   2    -0.254118022651E+03    0.11659E-03   -0.64774E-03  2432   0.256E-01    0.930E-02
DAV:   3    -0.254117845835E+03    0.17682E-03   -0.90365E-04  2264   0.964E-02    0.202E-02
DAV:   4    -0.254117873323E+03   -0.27488E-04   -0.15860E-04  1784   0.375E-02
  40 F= -.25411787E+03 E0= -.25411838E+03  d E =-.175394E-02  mag=     0.3285
 curvature:  -1.76 expect dE=-0.317E-02 dE for cont linesearch -0.566E-05
 trial: gam= 0.55848 g(F)=  0.180E-02 g(S)=  0.000E+00 ort = 0.334E-03 (trialstep = 0.423E+00)
 search vector abs. value=  0.130E-01
 bond charge predicted
       N       E                     dE             d eps       ncg     rms          rms(c)
DAV:   1    -0.254118610551E+03   -0.76472E-03   -0.95696E-02  1968   0.992E-01    0.805E-02
DAV:   2    -0.254118564874E+03    0.45676E-04   -0.19222E-03  2408   0.139E-01    0.498E-02
DAV:   3    -0.254118481835E+03    0.83040E-04   -0.26200E-04  1696   0.537E-02
  41 F= -.25411848E+03 E0= -.25411906E+03  d E =-.608511E-03  mag=     0.3251
 trial-energy change:   -0.000609  1 .order   -0.000609   -0.000839   -0.000378
 step:   0.7685(harm=  0.7685)  dis= 0.00542  next Energy=  -254.118637 (dE=-0.763E-03)
 bond charge predicted
       N       E                     dE             d eps       ncg     rms          rms(c)
DAV:   1    -0.254118785017E+03   -0.22014E-03   -0.65607E-02  1968   0.823E-01    0.709E-02
DAV:   2    -0.254118764851E+03    0.20166E-04   -0.13059E-03  2360   0.115E-01    0.448E-02
DAV:   3    -0.254118714981E+03    0.49870E-04   -0.17847E-04  1552   0.453E-02
  42 F= -.25411871E+03 E0= -.25411935E+03  d E =-.841657E-03  mag=     0.3207
 curvature:  -2.51 expect dE=-0.255E-02 dE for cont linesearch -0.114E-04
 ZBRENT: extrapolating
 opt :   0.8974  next Energy=  -254.118731 (dE=-0.857E-03)
 bond charge predicted
       N       E                     dE             d eps       ncg     rms          rms(c)
DAV:   1    -0.254118763892E+03    0.95895E-06   -0.92570E-03  2092   0.311E-01    0.276E-02
DAV:   2    -0.254118771935E+03   -0.80428E-05   -0.17071E-04  1486   0.445E-02
  43 F= -.25411877E+03 E0= -.25411942E+03  d E =-.898612E-03  mag=     0.3182
 curvature:  -3.45 expect dE=-0.471E-02 dE for cont linesearch -0.528E-05
 trial: gam= 0.76249 g(F)=  0.137E-02 g(S)=  0.000E+00 ort = 0.141E-03 (trialstep = 0.518E+00)
 search vector abs. value=  0.913E-02
 bond charge predicted
       N       E                     dE             d eps       ncg     rms          rms(c)
DAV:   1    -0.254119380627E+03   -0.61673E-03   -0.99768E-02  1968   0.102E+00    0.861E-02
DAV:   2    -0.254119328482E+03    0.52144E-04   -0.19611E-03  2384   0.140E-01    0.536E-02
DAV:   3    -0.254119252235E+03    0.76248E-04   -0.26939E-04  1750   0.550E-02
  44 F= -.25411925E+03 E0= -.25411995E+03  d E =-.480300E-03  mag=     0.3133
 trial-energy change:   -0.000480  1 .order   -0.000511   -0.000762   -0.000259
 step:   0.7846(harm=  0.7846)  dis= 0.00426  next Energy=  -254.119350 (dE=-0.578E-03)
 bond charge predicted
       N       E                     dE             d eps       ncg     rms          rms(c)
DAV:   1    -0.254119430533E+03   -0.10205E-03   -0.27623E-02  2036   0.536E-01    0.468E-02
DAV:   2    -0.254119438064E+03   -0.75313E-05   -0.56500E-04  2382   0.759E-02
  45 F= -.25411944E+03 E0= -.25412015E+03  d E =-.666129E-03  mag=     0.3102
 curvature:  -2.43 expect dE=-0.133E-02 dE for cont linesearch -0.530E-04
 ZBRENT: increasing intervall
 opt :   1.3187  next Energy=  -254.119647 (dE=-0.875E-03)
 bond charge predicted
       N       E                     dE             d eps       ncg     rms          rms(c)
DAV:   1    -0.254119498943E+03   -0.68411E-04   -0.10520E-01  1968   0.105E+00    0.902E-02
DAV:   2    -0.254119455205E+03    0.43738E-04   -0.19990E-03  2448   0.141E-01    0.564E-02
DAV:   3    -0.254119384335E+03    0.70870E-04   -0.28747E-04  1752   0.565E-02
  46 F= -.25411938E+03 E0= -.25412014E+03  d E =-.612400E-03  mag=     0.3050
 curvature:  -9.58 expect dE=-0.140E-01 dE for cont linesearch -0.280E-03
 ZBRENT: bracketing found
 ZBRENT: interpolating
 opt :   1.0321  next Energy=  -254.119493 (dE=-0.721E-03)
 bond charge predicted
       N       E                     dE             d eps       ncg     rms          rms(c)
DAV:   1    -0.254119503961E+03   -0.48756E-04   -0.30320E-02  1980   0.559E-01    0.451E-02
DAV:   2    -0.254119512570E+03   -0.86087E-05   -0.63264E-04  2408   0.796E-02
  47 F= -.25411951E+03 E0= -.25412026E+03  d E =-.740635E-03  mag=     0.3046
 curvature:  -1.89 expect dE=-0.160E-02 dE for cont linesearch -0.342E-05
 trial: gam= 0.64754 g(F)=  0.846E-03 g(S)=  0.000E+00 ort =-0.128E-03 (trialstep = 0.620E+00)
 search vector abs. value=  0.451E-02
 bond charge predicted
       N       E                     dE             d eps       ncg     rms          rms(c)
DAV:   1    -0.254119983911E+03   -0.47995E-03   -0.74523E-02  2028   0.879E-01    0.695E-02
DAV:   2    -0.254119946043E+03    0.37868E-04   -0.16325E-03  2392   0.129E-01    0.426E-02
DAV:   3    -0.254119858255E+03    0.87788E-04   -0.19486E-04  1494   0.479E-02
  48 F= -.25411986E+03 E0= -.25412069E+03  d E =-.345685E-03  mag=     0.3002
 trial-energy change:   -0.000346  1 .order   -0.000359   -0.000473   -0.000245
 step:   1.2880(harm=  1.2880)  dis= 0.00504  next Energy=  -254.120004 (dE=-0.491E-03)
 bond charge predicted
       N       E                     dE             d eps       ncg     rms          rms(c)
DAV:   1    -0.254120088139E+03   -0.14210E-03   -0.84141E-02  1972   0.943E-01    0.793E-02
DAV:   2    -0.254120045748E+03    0.42391E-04   -0.17353E-03  2368   0.133E-01    0.492E-02
DAV:   3    -0.254119953978E+03    0.91769E-04   -0.22221E-04  1750   0.502E-02
  49 F= -.25411995E+03 E0= -.25412088E+03  d E =-.441409E-03  mag=     0.2941
 curvature:  -3.80 expect dE=-0.305E-02 dE for cont linesearch -0.197E-05
 trial: gam= 0.93814 g(F)=  0.801E-03 g(S)=  0.000E+00 ort =-0.483E-04 (trialstep = 0.727E+00)
 search vector abs. value=  0.468E-02
 bond charge predicted
       N       E                     dE             d eps       ncg     rms          rms(c)
DAV:   1    -0.254120480226E+03   -0.43448E-03   -0.10289E-01  1968   0.104E+00    0.868E-02
DAV:   2    -0.254120454711E+03    0.25515E-04   -0.20388E-03  2414   0.146E-01    0.544E-02
DAV:   3    -0.254120377283E+03    0.77427E-04   -0.27922E-04  1744   0.566E-02
  50 F= -.25412038E+03 E0= -.25412141E+03  d E =-.423305E-03  mag=     0.2870
 trial-energy change:   -0.000423  1 .order   -0.000357   -0.000549   -0.000165
 step:   1.0383(harm=  1.0383)  dis= 0.00478  next Energy=  -254.120346 (dE=-0.392E-03)
 bond charge predicted
       N       E                     dE             d eps       ncg     rms          rms(c)
DAV:   1    -0.254120496635E+03   -0.41925E-04   -0.19263E-02  1998   0.452E-01    0.398E-02
DAV:   2    -0.254120511119E+03   -0.14483E-04   -0.37679E-04  2150   0.646E-02
  51 F= -.25412051E+03 E0= -.25412159E+03  d E =-.557140E-03  mag=     0.2829
 curvature:  -3.21 expect dE=-0.227E-02 dE for cont linesearch -0.203E-04
 ZBRENT: increasing intervall
 opt :   1.6618  next Energy=  -254.120584 (dE=-0.630E-03)
 bond charge predicted
       N       E                     dE             d eps       ncg     rms          rms(c)
DAV:   1    -0.254120500584E+03   -0.39487E-05   -0.73655E-02  1968   0.884E-01    0.764E-02
DAV:   2    -0.254120470450E+03    0.30134E-04   -0.14186E-03  2488   0.122E-01    0.475E-02
DAV:   3    -0.254120423201E+03    0.47248E-04   -0.20107E-04  1518   0.495E-02
  52 F= -.25412042E+03 E0= -.25412159E+03  d E =-.469223E-03  mag=     0.2765
 curvature: -11.55 expect dE=-0.223E-01 dE for cont linesearch -0.400E-03
 ZBRENT: bracketing found
 ZBRENT: interpolating
 opt :   1.2251  next Energy=  -254.120527 (dE=-0.573E-03)
 bond charge predicted
       N       E                     dE             d eps       ncg     rms          rms(c)
DAV:   1    -0.254120575804E+03   -0.10535E-03   -0.36605E-02  1968   0.618E-01    0.497E-02
DAV:   2    -0.254120590763E+03   -0.14959E-04   -0.77106E-04  2398   0.907E-02
  53 F= -.25412059E+03 E0= -.25412171E+03  d E =-.636785E-03  mag=     0.2757
 curvature:  -0.46 expect dE=-0.473E-03 dE for cont linesearch -0.175E-05
 trial: gam= 1.38302 g(F)=  0.102E-02 g(S)=  0.000E+00 ort =-0.133E-03 (trialstep = 0.403E+00)
 search vector abs. value=  0.960E-02
 bond charge predicted
       N       E                     dE             d eps       ncg     rms          rms(c)
DAV:   1    -0.254120940989E+03   -0.36518E-03   -0.65717E-02  2020   0.827E-01    0.617E-02
DAV:   2    -0.254120947660E+03   -0.66707E-05   -0.13923E-03  2456   0.120E-01    0.390E-02
DAV:   3    -0.254120910851E+03    0.36809E-04   -0.15245E-04  1488   0.459E-02
  54 F= -.25412091E+03 E0= -.25412206E+03  d E =-.320088E-03  mag=     0.2743
 trial-energy change:   -0.000320  1 .order   -0.000264   -0.000336   -0.000191
 step:   0.9335(harm=  0.9335)  dis= 0.00630  next Energy=  -254.120980 (dE=-0.390E-03)
 bond charge predicted
       N       E                     dE             d eps       ncg     rms          rms(c)
DAV:   1    -0.254121085634E+03   -0.13797E-03   -0.11078E-01  1968   0.108E+00    0.879E-02
DAV:   2    -0.254121084952E+03    0.68186E-06   -0.21679E-03  2440   0.150E-01    0.556E-02
DAV:   3    -0.254121035329E+03    0.49623E-04   -0.28735E-04  1744   0.590E-02
  55 F= -.25412104E+03 E0= -.25412222E+03  d E =-.444566E-03  mag=     0.2725
 curvature:  -5.37 expect dE=-0.237E-02 dE for cont linesearch -0.267E-04
 ZBRENT: interpolating
 opt :   0.7661  next Energy=  -254.121054 (dE=-0.463E-03)
 bond charge predicted
       N       E                     dE             d eps       ncg     rms          rms(c)
DAV:   1    -0.254121049345E+03    0.35607E-04   -0.10668E-02  1984   0.335E-01    0.258E-02
DAV:   2    -0.254121046440E+03    0.29049E-05   -0.21775E-04  1686   0.513E-02
  56 F= -.25412105E+03 E0= -.25412222E+03  d E =-.455676E-03  mag=     0.2720
 curvature:  -3.68 expect dE=-0.133E-02 dE for cont linesearch -0.380E-06
 trial: gam= 0.08331 g(F)=  0.363E-03 g(S)=  0.000E+00 ort = 0.315E-04 (trialstep = 0.475E+00)
 search vector abs. value=  0.435E-03
 bond charge predicted
       N       E                     dE             d eps       ncg     rms          rms(c)
DAV:   1    -0.254121181404E+03   -0.13206E-03   -0.44962E-03  2184   0.231E-01    0.182E-02
DAV:   2    -0.254121181249E+03    0.15560E-06   -0.12331E-04  1584   0.438E-02
  57 F= -.25412118E+03 E0= -.25412234E+03  d E =-.134809E-03  mag=     0.2725
 trial-energy change:   -0.000135  1 .order   -0.000134   -0.000174   -0.000093
 step:   1.0246(harm=  1.0246)  dis= 0.00101  next Energy=  -254.121234 (dE=-0.187E-03)
 bond charge predicted
       N       E                     dE             d eps       ncg     rms          rms(c)
DAV:   1    -0.254121224346E+03   -0.42941E-04   -0.56461E-03  2120   0.262E-01    0.256E-02
DAV:   2    -0.254121214281E+03    0.10064E-04   -0.15273E-04  1616   0.459E-02
  58 F= -.25412121E+03 E0= -.25412236E+03  d E =-.167842E-03  mag=     0.2736
 curvature:  -0.61 expect dE=-0.189E-03 dE for cont linesearch -0.164E-06
 trial: gam= 0.94068 g(F)=  0.311E-03 g(S)=  0.000E+00 ort =-0.108E-04 (trialstep = 0.377E+00)
 search vector abs. value=  0.675E-03
 bond charge predicted
       N       E                     dE             d eps       ncg     rms          rms(c)
DAV:   1    -0.254121294770E+03   -0.70425E-04   -0.32760E-03  2168   0.202E-01    0.175E-02
DAV:   2    -0.254121291543E+03    0.32272E-05   -0.70932E-05  1496   0.316E-02
  59 F= -.25412129E+03 E0= -.25412242E+03  d E =-.772620E-04  mag=     0.2747
 trial-energy change:   -0.000077  1 .order   -0.000089   -0.000113   -0.000064
 step:   0.8669(harm=  0.8669)  dis= 0.00181  next Energy=  -254.121345 (dE=-0.130E-03)
 bond charge predicted
       N       E                     dE             d eps       ncg     rms          rms(c)
DAV:   1    -0.254121340759E+03   -0.45988E-04   -0.55664E-03  2100   0.263E-01    0.230E-02
DAV:   2    -0.254121333022E+03    0.77362E-05   -0.11653E-04  1568   0.381E-02
  60 F= -.25412133E+03 E0= -.25412244E+03  d E =-.118741E-03  mag=     0.2762
 curvature:  -0.97 expect dE=-0.234E-03 dE for cont linesearch -0.264E-05
 trial: gam= 0.36157 g(F)=  0.240E-03 g(S)=  0.000E+00 ort = 0.428E-04 (trialstep = 0.475E+00)
 search vector abs. value=  0.359E-03
 bond charge predicted
       N       E                     dE             d eps       ncg     rms          rms(c)
DAV:   1    -0.254121424236E+03   -0.83477E-04   -0.32318E-03  2176   0.195E-01    0.191E-02
DAV:   2    -0.254121419039E+03    0.51962E-05   -0.95306E-05  1414   0.360E-02
  61 F= -.25412142E+03 E0= -.25412252E+03  d E =-.860170E-04  mag=     0.2778
 trial-energy change:   -0.000086  1 .order   -0.000095   -0.000121   -0.000070
 step:   1.1157(harm=  1.1157)  dis= 0.00205  next Energy=  -254.121475 (dE=-0.142E-03)
 bond charge predicted
       N       E                     dE             d eps       ncg     rms          rms(c)
DAV:   1    -0.254121440719E+03   -0.16483E-04   -0.56422E-03  2084   0.258E-01    0.256E-02
DAV:   2    -0.254121429507E+03    0.11212E-04   -0.15717E-04  1576   0.436E-02
  62 F= -.25412143E+03 E0= -.25412251E+03  d E =-.964845E-04  mag=     0.2798
 curvature:  -0.78 expect dE=-0.137E-03 dE for cont linesearch -0.416E-05
 ZBRENT: interpolating
 opt :   0.9687  next Energy=  -254.121433 (dE=-0.997E-04)
 bond charge predicted
       N       E                     dE             d eps       ncg     rms          rms(c)
DAV:   1    -0.254121431553E+03    0.91653E-05   -0.43070E-04  2102   0.693E-02    0.585E-03
DAV:   2    -0.254121440046E+03   -0.84925E-05   -0.18550E-05  1360   0.160E-02
  63 F= -.25412144E+03 E0= -.25412252E+03  d E =-.107023E-03  mag=     0.2806
 curvature:  -0.60 expect dE=-0.901E-04 dE for cont linesearch -0.193E-05
 ZBRENT: bisectioning
 opt :   0.7218  next Energy=  -254.121446 (dE=-0.113E-03)
 bond charge predicted
       N       E                     dE             d eps       ncg     rms          rms(c)
DAV:   1    -0.254121445287E+03   -0.13734E-04   -0.87164E-04  2116   0.101E-01    0.903E-03
DAV:   2    -0.254121449936E+03   -0.46488E-05   -0.22783E-05  1368   0.172E-02
  64 F= -.25412145E+03 E0= -.25412253E+03  d E =-.116913E-03  mag=     0.2812
 curvature:  -1.98 expect dE=-0.176E-03 dE for cont linesearch -0.522E-05
 ZBRENT: interpolating
 opt :   0.8394  next Energy=  -254.121452 (dE=-0.119E-03)
 bond charge predicted
       N       E                     dE             d eps       ncg     rms          rms(c)
DAV:   1    -0.254121458599E+03   -0.13312E-04   -0.22817E-04  1752   0.511E-02    0.317E-03
DAV:   2    -0.254121460706E+03   -0.21076E-05   -0.11510E-05  1354   0.124E-02
  65 F= -.25412146E+03 E0= -.25412254E+03  d E =-.127684E-03  mag=     0.2817
 curvature:  -0.69 expect dE=-0.739E-04 dE for cont linesearch -0.155E-07
 trial: gam= 0.48920 g(F)=  0.108E-03 g(S)=  0.000E+00 ort = 0.285E-05 (trialstep = 0.548E+00)
 search vector abs. value=  0.196E-03
 bond charge predicted
       N       E                     dE             d eps       ncg     rms          rms(c)
DAV:   1    -0.254121504203E+03   -0.45604E-04   -0.19613E-03  2004   0.150E-01    0.125E-02
DAV:   2    -0.254121497539E+03    0.66640E-05   -0.44588E-05  1518   0.237E-02
  66 F= -.25412150E+03 E0= -.25412255E+03  d E =-.368324E-04  mag=     0.2830
 trial-energy change:   -0.000037  1 .order   -0.000041   -0.000060   -0.000023
 step:   0.8803(harm=  0.8803)  dis= 0.00145  next Energy=  -254.121509 (dE=-0.480E-04)
 reached required accuracy - stopping structural energy minimisation
