<?xml version="1.0" encoding="ISO-8859-1"?>
<modeling>
 <generator>
  <i name="program" type="string">vasp </i>
  <i name="version" type="string">5.3.3  </i>
  <i name="subversion" type="string">18Dez12 (build Aug 26 2015 16:06:49) complex                          parallel </i>
  <i name="platform" type="string">LinuxIFC </i>
  <i name="date" type="string">2020 04 21 </i>
  <i name="time" type="string">16:35:13 </i>
 </generator>
 <incar>
  <i type="string" name="SYSTEM"> Beta12Borophene !The name of the system</i>
  <i type="string" name="PREC">normal   !normal or accurate</i>
  <i type="string" name="ALGO"> Normal   !def=Normal. Sets IALGO and LD</i>
  <i type="int" name="ISPIN">     2</i>
  <i type="int" name="NELM">    60</i>
  <i type="int" name="IBRION">     2</i>
  <i name="EDIFFG">     -0.01000000</i>
  <i type="int" name="NSW">  1000</i>
  <i type="int" name="ISIF">     2</i>
  <i name="ENCUT">    500.00000000</i>
  <i name="POTIM">      0.50000000</i>
  <v name="MAGMOM">      0.00000000      0.00000000      0.00000000      0.00000000      0.00000000      0.00000000      0.00000000      0.00000000      0.00000000      0.00000000      0.00000000      0.00000000      0.00000000      0.00000000      0.00000000      0.00000000      0.00000000      0.00000000      0.00000000      0.00000000
      0.00000000      0.00000000      0.00000000      0.00000000      0.00000000      0.00000000      0.00000000      0.00000000      0.00000000      0.00000000      0.00000000      0.00000000      0.00000000      0.00000000      0.00000000      0.00000000      0.00000000      0.00000000      0.00000000      0.00000000
      0.00000000      0.00000000      0.00000000      0.00000000      0.00000000      0.00000000</v>
  <i type="string" name="LREAL"> Auto   !values=.FALSE. or Auto  (def=.F</i>
  <i type="int" name="ISMEAR">     1</i>
  <i name="SIGMA">      0.10000000</i>
  <i type="logical" name="LWAVE"> F  </i>
  <i type="logical" name="LCHARG"> F  </i>
  <i type="logical" name="LVTOT"> F  </i>
  <i type="logical" name="LELF"> F  </i>
  <i type="int" name="NELM">    60</i>
  <i type="string" name="GGA"> PE   !GGA flavor: PE=PBE, RP=RPBE, RE=r</i>
  <i type="logical" name="LDIPOL"> T  </i>
  <i type="int" name="IDIPOL">     3</i>
 </incar>
 <kpoints>
  <generation param="Monkhorst-Pack">
   <v type="int" name="divisions">       3        3        2 </v>
   <v name="usershift">      0.00000000       0.00000000       0.00000000 </v>
   <v name="genvec1">      0.33333333       0.00000000       0.00000000 </v>
   <v name="genvec2">      0.00000000       0.33333333       0.00000000 </v>
   <v name="genvec3">      0.00000000       0.00000000       0.50000000 </v>
   <v name="shift">      0.00000000       0.00000000       0.50000000 </v>
  </generation>
  <varray name="kpointlist" >
   <v>       0.00000000       0.00000000       0.25000000 </v>
   <v>       0.33333333       0.00000000       0.25000000 </v>
   <v>      -0.33333333       0.00000000       0.25000000 </v>
   <v>       0.00000000       0.33333333       0.25000000 </v>
   <v>       0.33333333       0.33333333       0.25000000 </v>
   <v>      -0.33333333       0.33333333       0.25000000 </v>
  </varray>
  <varray name="weights" >
   <v>       0.11111111 </v>
   <v>       0.11111111 </v>
   <v>       0.11111111 </v>
   <v>       0.22222222 </v>
   <v>       0.22222222 </v>
   <v>       0.22222222 </v>
  </varray>
 </kpoints>
 <parameters>
  <separator name="general" >
   <i type="string" name="SYSTEM">Beta12Borophene !The name of the system</i>
   <i type="logical" name="LCOMPAT"> F  </i>
  </separator>
  <separator name="electronic" >
   <i type="string" name="PREC">normal</i>
   <i name="ENMAX">    500.00000000</i>
   <i name="ENAUG">    535.51400000</i>
   <i name="EDIFF">      0.00010000</i>
   <i type="int" name="IALGO">    38</i>
   <i type="int" name="IWAVPR">    11</i>
   <i type="int" name="NBANDS">    82</i>
   <i name="NELECT">    123.00000000</i>
   <i type="int" name="TURBO">     0</i>
   <i type="int" name="IRESTART">     0</i>
   <i type="int" name="NREBOOT">     0</i>
   <i type="int" name="NMIN">     0</i>
   <i name="EREF">      0.00000000</i>
   <separator name="electronic smearing" >
    <i type="int" name="ISMEAR">     1</i>
    <i name="SIGMA">      0.10000000</i>
    <i name="KSPACING">      0.50000000</i>
    <i type="logical" name="KGAMMA"> T  </i>
   </separator>
   <separator name="electronic projectors" >
    <i type="logical" name="LREAL"> T  </i>
    <v name="ROPT">     -0.00050000     -0.00050000</v>
    <i type="int" name="LMAXPAW">  -100</i>
    <i type="int" name="LMAXMIX">     2</i>
    <i type="logical" name="NLSPLINE"> F  </i>
   </separator>
   <separator name="electronic startup" >
    <i type="int" name="ISTART">     0</i>
    <i type="int" name="ICHARG">     2</i>
    <i type="int" name="INIWAV">     1</i>
   </separator>
   <separator name="electronic spin" >
    <i type="int" name="ISPIN">     2</i>
    <i type="logical" name="LNONCOLLINEAR"> F  </i>
    <v name="MAGMOM">      0.00000000      0.00000000      0.00000000      0.00000000      0.00000000      0.00000000      0.00000000      0.00000000      0.00000000      0.00000000      0.00000000      0.00000000      0.00000000      0.00000000      0.00000000      0.00000000      0.00000000      0.00000000      0.00000000      0.00000000
      0.00000000      0.00000000      0.00000000      0.00000000      0.00000000      0.00000000      0.00000000      0.00000000      0.00000000      0.00000000      0.00000000      0.00000000      0.00000000      0.00000000      0.00000000      0.00000000      0.00000000      0.00000000      0.00000000      0.00000000
      0.00000000</v>
    <i name="NUPDOWN">     -1.00000000</i>
    <i type="logical" name="LSORBIT"> F  </i>
    <v name="SAXIS">      0.00000000      0.00000000      1.00000000</v>
    <i type="logical" name="LSPIRAL"> F  </i>
    <v name="QSPIRAL">      0.00000000      0.00000000      0.00000000</v>
    <i type="logical" name="LZEROZ"> F  </i>
   </separator>
   <separator name="electronic exchange-correlation" >
    <i type="logical" name="LASPH"> F  </i>
    <i type="logical" name="LMETAGGA"> F  </i>
   </separator>
   <separator name="electronic convergence" >
    <i type="int" name="NELM">    60</i>
    <i type="int" name="NELMDL">    -5</i>
    <i type="int" name="NELMIN">     2</i>
    <i name="ENINI">    500.00000000</i>
    <separator name="electronic convergence detail" >
     <i type="logical" name="LDIAG"> T  </i>
     <i type="logical" name="LSUBROT"> T  </i>
     <i name="WEIMIN">      0.00100000</i>
     <i name="EBREAK">      0.00000030</i>
     <i name="DEPER">      0.30000000</i>
     <i type="int" name="NRMM">     4</i>
     <i name="TIME">      0.40000000</i>
    </separator>
   </separator>
   <separator name="electronic mixer" >
    <i name="AMIX">      0.40000000</i>
    <i name="BMIX">      1.00000000</i>
    <i name="AMIN">      0.10000000</i>
    <i name="AMIX_MAG">      1.60000000</i>
    <i name="BMIX_MAG">      1.00000000</i>
    <separator name="electronic mixer details" >
     <i type="int" name="IMIX">     4</i>
     <i type="int" name="MAXMIX">   -45</i>
     <i name="WC">    100.00000000</i>
     <i type="int" name="INIMIX">     1</i>
     <i type="int" name="MIXPRE">     1</i>
     <i type="int" name="MREMOVE">     5</i>
    </separator>
   </separator>
   <separator name="electronic dipolcorrection" >
    <i type="logical" name="LDIPOL"> T  </i>
    <i type="logical" name="LMONO"> F  </i>
    <i type="int" name="IDIPOL">     3</i>
    <i name="EPSILON">      1.00000000</i>
    <v name="DIPOL">   -100.00000000   -100.00000000   -100.00000000</v>
    <i name="EFIELD">      0.00000000</i>
   </separator>
  </separator>
  <separator name="grids" >
   <i type="int" name="NGX">    56</i>
   <i type="int" name="NGY">    64</i>
   <i type="int" name="NGZ">    84</i>
   <i type="int" name="NGXF">   112</i>
   <i type="int" name="NGYF">   128</i>
   <i type="int" name="NGZF">   168</i>
   <i type="logical" name="ADDGRID"> F  </i>
  </separator>
  <separator name="ionic" >
   <i type="int" name="NSW">  1000</i>
   <i type="int" name="IBRION">     2</i>
   <i type="int" name="ISIF">     2</i>
   <i name="PSTRESS">      0.00000000</i>
   <i name="EDIFFG">     -0.01000000</i>
   <i type="int" name="NFREE">     1</i>
   <i name="POTIM">      0.50000000</i>
   <i name="SMASS">     -3.00000000</i>
   <i name="SCALEE">      1.00000000</i>
  </separator>
  <separator name="ionic md" >
   <i name="TEBEG">      0.00010000</i>
   <i name="TEEND">      0.00010000</i>
   <i type="int" name="NBLOCK">     1</i>
   <i type="int" name="KBLOCK">  1000</i>
   <i type="int" name="NPACO">   256</i>
   <i name="APACO">     16.00000000</i>
  </separator>
  <separator name="symmetry" >
   <i type="int" name="ISYM">     2</i>
   <i name="SYMPREC">      0.00001000</i>
  </separator>
  <separator name="dos" >
   <i type="logical" name="LORBIT"> F  </i>
   <v name="RWIGS">     -1.00000000     -1.00000000</v>
   <i type="int" name="NEDOS">   301</i>
   <i name="EMIN">     10.00000000</i>
   <i name="EMAX">    -10.00000000</i>
   <i name="EFERMI">      0.00000000</i>
  </separator>
  <separator name="writing" >
   <i type="int" name="NWRITE">     2</i>
   <i type="logical" name="LWAVE"> F  </i>
   <i type="logical" name="LCHARG"> F  </i>
   <i type="logical" name="LPARD"> F  </i>
   <i type="logical" name="LVTOT"> F  </i>
   <i type="logical" name="LVHAR"> F  </i>
   <i type="logical" name="LELF"> F  </i>
   <i type="logical" name="LOPTICS"> F  </i>
   <v name="STM">      0.00000000      0.00000000      0.00000000      0.00000000      0.00000000      0.00000000      0.00000000</v>
  </separator>
  <separator name="performance" >
   <i type="int" name="NPAR">     1</i>
   <i type="int" name="NSIM">     4</i>
   <i type="int" name="NBLK">    -1</i>
   <i type="logical" name="LPLANE"> T  </i>
   <i type="logical" name="LSCALAPACK"> T  </i>
   <i type="logical" name="LSCAAWARE"> F  </i>
   <i type="logical" name="LSCALU"> F  </i>
   <i type="logical" name="LASYNC"> F  </i>
   <i type="logical" name="LORBITALREAL"> F  </i>
  </separator>
  <separator name="miscellaneous" >
   <i type="int" name="IDIOT">     3</i>
   <i type="logical" name="LMUSIC"> F  </i>
   <v name="POMASS">     10.81100000     26.98100000</v>
   <v name="DARWINR">      0.00000000      0.00000000</v>
   <v name="DARWINV">      1.00000000      1.00000000</v>
   <i type="logical" name="LCORR"> T  </i>
  </separator>
  <i type="logical" name="GGA_COMPAT"> T  </i>
  <i type="logical" name="LBERRY"> F  </i>
  <i type="int" name="ICORELEVEL">     0</i>
  <i type="logical" name="LDAU"> F  </i>
  <i type="int" name="I_CONSTRAINED_M">     0</i>
  <separator name="electronic exchange-correlation" >
   <i type="string" name="GGA">PE</i>
   <i type="int" name="VOSKOWN">     0</i>
   <i type="logical" name="LHFCALC"> F  </i>
   <i type="string" name="PRECFOCK"></i>
   <i type="logical" name="LSYMGRAD"> F  </i>
   <i type="logical" name="LHFONE"> F  </i>
   <i type="logical" name="LRHFCALC"> F  </i>
   <i type="logical" name="LTHOMAS"> F  </i>
   <i type="logical" name="LMODELHF"> F  </i>
   <i name="ENCUT4O">     -1.00000000</i>
   <i type="int" name="EXXOEP">     0</i>
   <i type="int" name="FOURORBIT">     0</i>
   <i name="AEXX">      0.00000000</i>
   <i name="HFALPHA">      0.00000000</i>
   <i name="MCALPHA">      0.00000000</i>
   <i name="ALDAX">      1.00000000</i>
   <i name="AGGAX">      1.00000000</i>
   <i name="ALDAC">      1.00000000</i>
   <i name="AGGAC">      1.00000000</i>
   <i type="int" name="NKREDX">     1</i>
   <i type="int" name="NKREDY">     1</i>
   <i type="int" name="NKREDZ">     1</i>
   <i type="logical" name="SHIFTRED"> F  </i>
   <i type="logical" name="ODDONLY"> F  </i>
   <i type="logical" name="EVENONLY"> F  </i>
   <i type="int" name="LMAXFOCK">     0</i>
   <i type="int" name="NMAXFOCKAE">     0</i>
   <i type="logical" name="LFOCKAEDFT"> F  </i>
   <i name="HFSCREEN">      0.00000000</i>
   <i name="HFSCREENC">      0.00000000</i>
   <i type="int" name="NBANDSGWLOW">     0</i>
  </separator>
  <separator name="vdW DFT" >
   <i type="logical" name="LUSE_VDW"> F  </i>
   <i name="Zab_VDW">     -0.84910000</i>
   <i name="PARAM1">      0.12340000</i>
   <i name="PARAM2">      1.00000000</i>
   <i name="PARAM3">      0.00000000</i>
  </separator>
  <separator name="model GW" >
   <i type="int" name="MODEL_GW">     0</i>
   <i name="MODEL_EPS0">     26.22766829</i>
   <i name="MODEL_ALPHA">      1.00000000</i>
  </separator>
  <separator name="linear response parameters" >
   <i type="logical" name="LEPSILON"> F  </i>
   <i type="logical" name="LRPA"> F  </i>
   <i type="logical" name="LNABLA"> F  </i>
   <i type="logical" name="LVEL"> F  </i>
   <i type="int" name="KINTER">     0</i>
   <i name="CSHIFT">      0.10000000</i>
   <i name="OMEGAMAX">     -1.00000000</i>
   <i name="DEG_THRESHOLD">      0.00200000</i>
  </separator>
  <separator name="orbital magnetization" >
   <i type="logical" name="NUCIND"> F  </i>
   <v name="MAGPOS">      0.00000000      0.00000000      0.00000000</v>
   <i type="logical" name="LNICSALL"> T  </i>
   <i type="logical" name="ORBITALMAG"> F  </i>
   <i type="logical" name="LMAGBLOCH"> F  </i>
   <i type="logical" name="LCHIMAG"> F  </i>
   <i type="logical" name="LGAUGE"> T  </i>
   <i type="int" name="MAGATOM">     0</i>
   <v name="MAGDIPOL">      0.00000000      0.00000000      0.00000000</v>
   <v name="AVECCONST">      0.00000000      0.00000000      0.00000000</v>
  </separator>
  <separator name="response functions" >
   <i type="logical" name="LADDER"> F  </i>
   <i type="logical" name="LFXC"> F  </i>
   <i type="logical" name="LHARTREE"> T  </i>
   <i type="int" name="IBSE">     0</i>
   <i type="logical" name="LTCTE"> F  </i>
   <i type="logical" name="LTETE"> F  </i>
   <i type="logical" name="LTRIPLET"> F  </i>
   <i type="logical" name="LFXCEPS"> F  </i>
   <i type="logical" name="L2ORDER"> F  </i>
   <i type="logical" name="LUSEW"> F  </i>
   <i name="ENCUTGW">     -2.00000000</i>
   <i name="ENCUTGWSOFT">     -2.00000000</i>
   <i name="ENCUTLF">     -1.00000000</i>
   <i type="int" name="LMAXMP2">    -1</i>
   <i name="SCISSOR">      0.00000000</i>
   <i type="int" name="NOMEGA">     0</i>
   <i type="int" name="NOMEGAR">     0</i>
   <i type="int" name="NBANDSGW">    -1</i>
   <i type="int" name="NBANDSO">    -1</i>
   <i type="int" name="NBANDSV">    -1</i>
   <i type="int" name="NELM">    60</i>
   <i type="int" name="DIM">     3</i>
   <i type="int" name="ANTIRES">     0</i>
   <i name="OMEGAMAX">    -30.00000000</i>
   <i name="OMEGATL">   -200.00000000</i>
   <i type="int" name="OMEGAGRID">     0</i>
   <i name="CSHIFT">     -0.10000000</i>
   <i type="logical" name="SELFENERGY"> F  </i>
   <i type="logical" name="LSPECTRAL"> F  </i>
   <i type="logical" name="ODDONLYGW"> F  </i>
   <i type="logical" name="EVENONLYGW"> F  </i>
   <i type="int" name="NKREDLFX">     1</i>
   <i type="int" name="NKREDLFY">     1</i>
   <i type="int" name="NKREDLFZ">     1</i>
   <i type="int" name="MAXMEM">  1800</i>
   <i type="int" name="TELESCOPE">     0</i>
  </separator>
 </parameters>
 <atominfo>
  <atoms>      41 </atoms>
  <types>       2 </types>
  <array name="atoms" >
   <dimension dim="1">ion</dimension>
   <field type="string">element</field>
   <field type="int">atomtype</field>
   <set>
    <rc><c>B </c><c>   1</c></rc>
    <rc><c>B </c><c>   1</c></rc>
    <rc><c>B </c><c>   1</c></rc>
    <rc><c>B </c><c>   1</c></rc>
    <rc><c>B </c><c>   1</c></rc>
    <rc><c>B </c><c>   1</c></rc>
    <rc><c>B </c><c>   1</c></rc>
    <rc><c>B </c><c>   1</c></rc>
    <rc><c>B </c><c>   1</c></rc>
    <rc><c>B </c><c>   1</c></rc>
    <rc><c>B </c><c>   1</c></rc>
    <rc><c>B </c><c>   1</c></rc>
    <rc><c>B </c><c>   1</c></rc>
    <rc><c>B </c><c>   1</c></rc>
    <rc><c>B </c><c>   1</c></rc>
    <rc><c>B </c><c>   1</c></rc>
    <rc><c>B </c><c>   1</c></rc>
    <rc><c>B </c><c>   1</c></rc>
    <rc><c>B </c><c>   1</c></rc>
    <rc><c>B </c><c>   1</c></rc>
    <rc><c>B </c><c>   1</c></rc>
    <rc><c>B </c><c>   1</c></rc>
    <rc><c>B </c><c>   1</c></rc>
    <rc><c>B </c><c>   1</c></rc>
    <rc><c>B </c><c>   1</c></rc>
    <rc><c>B </c><c>   1</c></rc>
    <rc><c>B </c><c>   1</c></rc>
    <rc><c>B </c><c>   1</c></rc>
    <rc><c>B </c><c>   1</c></rc>
    <rc><c>B </c><c>   1</c></rc>
    <rc><c>B </c><c>   1</c></rc>
    <rc><c>B </c><c>   1</c></rc>
    <rc><c>B </c><c>   1</c></rc>
    <rc><c>B </c><c>   1</c></rc>
    <rc><c>B </c><c>   1</c></rc>
    <rc><c>B </c><c>   1</c></rc>
    <rc><c>B </c><c>   1</c></rc>
    <rc><c>B </c><c>   1</c></rc>
    <rc><c>B </c><c>   1</c></rc>
    <rc><c>B </c><c>   1</c></rc>
    <rc><c>Al</c><c>   2</c></rc>
   </set>
  </array>
  <array name="atomtypes" >
   <dimension dim="1">type</dimension>
   <field type="int">atomspertype</field>
   <field type="string">element</field>
   <field>mass</field>
   <field>valence</field>
   <field type="string">pseudopotential</field>
   <set>
    <rc><c>  40</c><c>B </c><c>     10.81100000</c><c>      3.00000000</c><c>  PAW_PBE B 06Sep2000                   </c></rc>
    <rc><c>   1</c><c>Al</c><c>     26.98100000</c><c>      3.00000000</c><c>  PAW_PBE Al 04Jan2001                  </c></rc>
   </set>
  </array>
 </atominfo>
 <structure name="initialpos" >
  <crystal>
   <varray name="basis" >
    <v>      10.16000000       0.00000000       0.00000000 </v>
    <v>       0.00000000      11.76000000       0.00000000 </v>
    <v>       0.00000000       0.00000000      15.00000000 </v>
   </varray>
   <i name="volume">   1792.22400000 </i>
   <varray name="rec_basis" >
    <v>       0.09842520       0.00000000       0.00000000 </v>
    <v>       0.00000000       0.08503401       0.00000000 </v>
    <v>       0.00000000       0.00000000       0.06666667 </v>
   </varray>
  </crystal>
  <varray name="positions" >
   <v>       0.99811000       0.00000000       0.00000000 </v>
   <v>       0.16667000       0.00000000       0.00000000 </v>
   <v>       0.33522000       0.00000000       0.00000000 </v>
   <v>       0.08000000       0.12500000       0.00000000 </v>
   <v>       0.25334000       0.12500000       0.00000000 </v>
   <v>       0.99811000       0.25000000       0.00000000 </v>
   <v>       0.16667000       0.25000000       0.00000000 </v>
   <v>       0.33522000       0.25000000       0.00000000 </v>
   <v>       0.08000000       0.37500000       0.00000000 </v>
   <v>       0.25334000       0.37500000       0.00000000 </v>
   <v>       0.99811000       0.50000000       0.00000000 </v>
   <v>       0.16667000       0.50000000       0.00000000 </v>
   <v>       0.33522000       0.50000000       0.00000000 </v>
   <v>       0.08000000       0.62500000       0.00000000 </v>
   <v>       0.25334000       0.62500000       0.00000000 </v>
   <v>       0.99811000       0.75000000       0.00000000 </v>
   <v>       0.16667000       0.75000000       0.00000000 </v>
   <v>       0.33522000       0.75000000       0.00000000 </v>
   <v>       0.08000000       0.87500000       0.00000000 </v>
   <v>       0.25334000       0.87500000       0.00000000 </v>
   <v>       0.49811000       0.00000000       0.00000000 </v>
   <v>       0.66667000       0.00000000       0.00000000 </v>
   <v>       0.83522000       0.00000000       0.00000000 </v>
   <v>       0.58000000       0.12500000       0.00000000 </v>
   <v>       0.75334000       0.12500000       0.00000000 </v>
   <v>       0.49811000       0.25000000       0.00000000 </v>
   <v>       0.66667000       0.25000000       0.00000000 </v>
   <v>       0.83522000       0.25000000       0.00000000 </v>
   <v>       0.58000000       0.37500000       0.00000000 </v>
   <v>       0.75334000       0.37500000       0.00000000 </v>
   <v>       0.49811000       0.50000000       0.00000000 </v>
   <v>       0.66667000       0.50000000       0.00000000 </v>
   <v>       0.83522000       0.50000000       0.00000000 </v>
   <v>       0.58000000       0.62500000       0.00000000 </v>
   <v>       0.75334000       0.62500000       0.00000000 </v>
   <v>       0.49811000       0.75000000       0.00000000 </v>
   <v>       0.66667000       0.75000000       0.00000000 </v>
   <v>       0.83522000       0.75000000       0.00000000 </v>
   <v>       0.58000000       0.87500000       0.00000000 </v>
   <v>       0.75334000       0.87500000       0.00000000 </v>
   <v>       0.41667000       0.12500000       0.13333000 </v>
  </varray>
 </structure>
 <calculation>
  <scstep>
   <time name="dav">   20.58   20.58</time>
   <time name="total">   21.68   21.68</time>
   <dipole>
    <v name="dipole">      0.00000000       0.00000000      -0.00048155 </v>
    <i name="Tr[quadrupol]">  -2513.38459324 </i>
    <i name="Echarged">      0.00000000 </i>
    <i name="Edipol_quadrupol">      0.00000000 </i>
    <i name="Eion">      0.00000000 </i>
   </dipole>
   <energy>
    <i name="alphaZ">     62.87322048 </i>
    <i name="ewald">   8136.43039434 </i>
    <i name="hartreedc"> -10052.43811407 </i>
    <i name="XCdc">    243.62999241 </i>
    <i name="pawpsdc">   1806.19477735 </i>
    <i name="pawaedc">  -1740.02744309 </i>
    <i name="eentropy">      0.00489636 </i>
    <i name="bandstr">   -486.13187795 </i>
    <i name="atom">   2900.30308171 </i>
    <i name="e_fr_energy">    870.83892753 </i>
    <i name="e_wo_entrp">    870.83403117 </i>
    <i name="e_0_energy">    870.83729541 </i>
   </energy>
  </scstep>
  <scstep>
   <time name="dav">   26.55   26.55</time>
   <time name="total">   26.56   26.56</time>
   <dipole>
    <v name="dipole">      0.00000000       0.00000000      -0.00048155 </v>
    <i name="Tr[quadrupol]">  -2513.38459324 </i>
    <i name="Echarged">      0.00000000 </i>
    <i name="Edipol_quadrupol">      0.00000000 </i>
    <i name="Eion">      0.00000000 </i>
   </dipole>
   <energy>
    <i name="e_fr_energy">   -142.76915600 </i>
    <i name="e_wo_entrp">   -142.76293137 </i>
    <i name="e_0_energy">   -142.76708112 </i>
   </energy>
  </scstep>
  <scstep>
   <time name="dav">   22.66   22.66</time>
   <time name="total">   22.66   22.67</time>
   <dipole>
    <v name="dipole">      0.00000000       0.00000000      -0.00048155 </v>
    <i name="Tr[quadrupol]">  -2513.38459324 </i>
    <i name="Echarged">      0.00000000 </i>
    <i name="Edipol_quadrupol">      0.00000000 </i>
    <i name="Eion">      0.00000000 </i>
   </dipole>
   <energy>
    <i name="e_fr_energy">   -279.29738793 </i>
    <i name="e_wo_entrp">   -279.30132214 </i>
    <i name="e_0_energy">   -279.29869934 </i>
   </energy>
  </scstep>
  <scstep>
   <time name="dav">   25.38   25.38</time>
   <time name="total">   25.38   25.39</time>
   <dipole>
    <v name="dipole">      0.00000000       0.00000000      -0.00048155 </v>
    <i name="Tr[quadrupol]">  -2513.38459324 </i>
    <i name="Echarged">      0.00000000 </i>
    <i name="Edipol_quadrupol">      0.00000000 </i>
    <i name="Eion">      0.00000000 </i>
   </dipole>
   <energy>
    <i name="e_fr_energy">   -283.88676498 </i>
    <i name="e_wo_entrp">   -283.89036790 </i>
    <i name="e_0_energy">   -283.88796595 </i>
   </energy>
  </scstep>
  <scstep>
   <time name="dav">   26.12   26.12</time>
   <time name="total">   27.46   27.46</time>
   <dipole>
    <v name="dipole">      0.00000000       0.00000000      -0.00048155 </v>
    <i name="Tr[quadrupol]">  -2513.38459324 </i>
    <i name="Echarged">      0.00000000 </i>
    <i name="Edipol_quadrupol">      0.00000000 </i>
    <i name="Eion">      0.00000000 </i>
   </dipole>
   <energy>
    <i name="e_fr_energy">   -284.01689580 </i>
    <i name="e_wo_entrp">   -284.02028255 </i>
    <i name="e_0_energy">   -284.01802471 </i>
   </energy>
  </scstep>
  <scstep>
   <time name="dav">   22.71   22.72</time>
   <time name="total">   25.15   25.15</time>
   <dipole>
    <v name="dipole">      0.00000000       0.00000000      -0.39987028 </v>
    <i name="Tr[quadrupol]">  -2515.51644767 </i>
    <i name="Echarged">      0.00000000 </i>
    <i name="Edipol_quadrupol">      0.00000000 </i>
    <i name="Eion">      0.00000000 </i>
   </dipole>
   <energy>
    <i name="e_fr_energy">   -262.23484272 </i>
    <i name="e_wo_entrp">   -262.22105904 </i>
    <i name="e_0_energy">   -262.23024816 </i>
   </energy>
  </scstep>
  <scstep>
   <time name="dav">   23.24   23.24</time>
   <time name="total">   25.68   25.69</time>
   <dipole>
    <v name="dipole">      0.00000000       0.00000000      -0.45913263 </v>
    <i name="Tr[quadrupol]">  -2518.13018686 </i>
    <i name="Echarged">      0.00000000 </i>
    <i name="Edipol_quadrupol">      0.00000000 </i>
    <i name="Eion">      0.00000000 </i>
   </dipole>
   <energy>
    <i name="e_fr_energy">   -254.48922296 </i>
    <i name="e_wo_entrp">   -254.48494414 </i>
    <i name="e_0_energy">   -254.48779668 </i>
   </energy>
  </scstep>
  <scstep>
   <time name="dav">   23.32   23.32</time>
   <time name="total">   25.81   25.82</time>
   <dipole>
    <v name="dipole">      0.00000000       0.00000000      -0.34975084 </v>
    <i name="Tr[quadrupol]">  -2519.81334932 </i>
    <i name="Echarged">      0.00000000 </i>
    <i name="Edipol_quadrupol">      0.00000000 </i>
    <i name="Eion">      0.00000000 </i>
   </dipole>
   <energy>
    <i name="e_fr_energy">   -253.78974509 </i>
    <i name="e_wo_entrp">   -253.77908129 </i>
    <i name="e_0_energy">   -253.78619049 </i>
   </energy>
  </scstep>
  <scstep>
   <time name="dav">   23.19   23.19</time>
   <time name="total">   25.62   25.62</time>
   <dipole>
    <v name="dipole">      0.00000000       0.00000000      -0.27674789 </v>
    <i name="Tr[quadrupol]">  -2521.06495097 </i>
    <i name="Echarged">      0.00000000 </i>
    <i name="Edipol_quadrupol">      0.00000000 </i>
    <i name="Eion">      0.00000000 </i>
   </dipole>
   <energy>
    <i name="e_fr_energy">   -253.69837774 </i>
    <i name="e_wo_entrp">   -253.68652204 </i>
    <i name="e_0_energy">   -253.69442584 </i>
   </energy>
  </scstep>
  <scstep>
   <time name="dav">   23.01   23.01</time>
   <time name="total">   25.50   25.50</time>
   <dipole>
    <v name="dipole">      0.00000000       0.00000000      -0.24695758 </v>
    <i name="Tr[quadrupol]">  -2522.70647838 </i>
    <i name="Echarged">      0.00000000 </i>
    <i name="Edipol_quadrupol">      0.00000000 </i>
    <i name="Eion">      0.00000000 </i>
   </dipole>
   <energy>
    <i name="e_fr_energy">   -253.62896579 </i>
    <i name="e_wo_entrp">   -253.61825274 </i>
    <i name="e_0_energy">   -253.62539477 </i>
   </energy>
  </scstep>
  <scstep>
   <time name="dav">   22.41   22.42</time>
   <time name="total">   24.84   24.84</time>
   <dipole>
    <v name="dipole">      0.00000000       0.00000000      -0.20409321 </v>
    <i name="Tr[quadrupol]">  -2523.79424177 </i>
    <i name="Echarged">      0.00000000 </i>
    <i name="Edipol_quadrupol">      0.00000000 </i>
    <i name="Eion">      0.00000000 </i>
   </dipole>
   <energy>
    <i name="e_fr_energy">   -253.61719362 </i>
    <i name="e_wo_entrp">   -253.60605689 </i>
    <i name="e_0_energy">   -253.61348137 </i>
   </energy>
  </scstep>
  <scstep>
   <time name="dav">   22.61   22.62</time>
   <time name="total">   25.12   25.12</time>
   <dipole>
    <v name="dipole">      0.00000000       0.00000000      -0.18706274 </v>
    <i name="Tr[quadrupol]">  -2525.06418694 </i>
    <i name="Echarged">      0.00000000 </i>
    <i name="Edipol_quadrupol">      0.00000000 </i>
    <i name="Eion">      0.00000000 </i>
   </dipole>
   <energy>
    <i name="e_fr_energy">   -253.60873087 </i>
    <i name="e_wo_entrp">   -253.59719699 </i>
    <i name="e_0_energy">   -253.60488624 </i>
   </energy>
  </scstep>
  <scstep>
   <time name="dav">   22.42   22.42</time>
   <time name="total">   24.92   24.92</time>
   <dipole>
    <v name="dipole">      0.00000000       0.00000000       0.06346361 </v>
    <i name="Tr[quadrupol]">  -2526.54100895 </i>
    <i name="Echarged">      0.00000000 </i>
    <i name="Edipol_quadrupol">      0.00000000 </i>
    <i name="Eion">      0.00000000 </i>
   </dipole>
   <energy>
    <i name="e_fr_energy">   -253.61381259 </i>
    <i name="e_wo_entrp">   -253.60105968 </i>
    <i name="e_0_energy">   -253.60956162 </i>
   </energy>
  </scstep>
  <scstep>
   <time name="dav">   23.21   23.21</time>
   <time name="total">   25.72   25.72</time>
   <dipole>
    <v name="dipole">      0.00000000       0.00000000       0.16651721 </v>
    <i name="Tr[quadrupol]">  -2526.93790614 </i>
    <i name="Echarged">      0.00000000 </i>
    <i name="Edipol_quadrupol">      0.00000000 </i>
    <i name="Eion">      0.00000000 </i>
   </dipole>
   <energy>
    <i name="e_fr_energy">   -253.61548292 </i>
    <i name="e_wo_entrp">   -253.60273055 </i>
    <i name="e_0_energy">   -253.61123213 </i>
   </energy>
  </scstep>
  <scstep>
   <time name="dav">   23.64   23.64</time>
   <time name="total">   26.14   26.14</time>
   <dipole>
    <v name="dipole">      0.00000000       0.00000000       0.05810158 </v>
    <i name="Tr[quadrupol]">  -2527.62965961 </i>
    <i name="Echarged">      0.00000000 </i>
    <i name="Edipol_quadrupol">      0.00000000 </i>
    <i name="Eion">      0.00000000 </i>
   </dipole>
   <energy>
    <i name="e_fr_energy">   -253.62364944 </i>
    <i name="e_wo_entrp">   -253.61441624 </i>
    <i name="e_0_energy">   -253.62057171 </i>
   </energy>
  </scstep>
  <scstep>
   <time name="dav">   22.37   22.37</time>
   <time name="total">   24.82   24.83</time>
   <dipole>
    <v name="dipole">      0.00000000       0.00000000       0.05664970 </v>
    <i name="Tr[quadrupol]">  -2527.88984319 </i>
    <i name="Echarged">      0.00000000 </i>
    <i name="Edipol_quadrupol">      0.00000000 </i>
    <i name="Eion">      0.00000000 </i>
   </dipole>
   <energy>
    <i name="e_fr_energy">   -253.62094286 </i>
    <i name="e_wo_entrp">   -253.61062924 </i>
    <i name="e_0_energy">   -253.61750499 </i>
   </energy>
  </scstep>
  <scstep>
   <time name="dav">   21.13   21.13</time>
   <time name="total">   23.61   23.61</time>
   <dipole>
    <v name="dipole">      0.00000000       0.00000000       0.01523574 </v>
    <i name="Tr[quadrupol]">  -2528.18476056 </i>
    <i name="Echarged">      0.00000000 </i>
    <i name="Edipol_quadrupol">      0.00000000 </i>
    <i name="Eion">      0.00000000 </i>
   </dipole>
   <energy>
    <i name="e_fr_energy">   -253.62372874 </i>
    <i name="e_wo_entrp">   -253.61249283 </i>
    <i name="e_0_energy">   -253.61998344 </i>
   </energy>
  </scstep>
  <scstep>
   <time name="dav">   22.14   22.14</time>
   <time name="total">   24.64   24.64</time>
   <dipole>
    <v name="dipole">      0.00000000       0.00000000      -0.02998994 </v>
    <i name="Tr[quadrupol]">  -2528.38674558 </i>
    <i name="Echarged">      0.00000000 </i>
    <i name="Edipol_quadrupol">      0.00000000 </i>
    <i name="Eion">      0.00000000 </i>
   </dipole>
   <energy>
    <i name="e_fr_energy">   -253.62674634 </i>
    <i name="e_wo_entrp">   -253.61568450 </i>
    <i name="e_0_energy">   -253.62305906 </i>
   </energy>
  </scstep>
  <scstep>
   <time name="dav">   17.58   17.58</time>
   <time name="total">   20.10   20.10</time>
   <dipole>
    <v name="dipole">      0.00000000       0.00000000      -0.04699714 </v>
    <i name="Tr[quadrupol]">  -2528.43999288 </i>
    <i name="Echarged">      0.00000000 </i>
    <i name="Edipol_quadrupol">      0.00000000 </i>
    <i name="Eion">      0.00000000 </i>
   </dipole>
   <energy>
    <i name="e_fr_energy">   -253.62788818 </i>
    <i name="e_wo_entrp">   -253.61695701 </i>
    <i name="e_0_energy">   -253.62424446 </i>
   </energy>
  </scstep>
  <scstep>
   <time name="dav">   19.54   19.54</time>
   <time name="total">   22.06   22.06</time>
   <dipole>
    <v name="dipole">      0.00000000       0.00000000      -0.08501916 </v>
    <i name="Tr[quadrupol]">  -2528.62878347 </i>
    <i name="Echarged">      0.00000000 </i>
    <i name="Edipol_quadrupol">      0.00000000 </i>
    <i name="Eion">      0.00000000 </i>
   </dipole>
   <energy>
    <i name="e_fr_energy">   -253.63123989 </i>
    <i name="e_wo_entrp">   -253.62021342 </i>
    <i name="e_0_energy">   -253.62756440 </i>
   </energy>
  </scstep>
  <scstep>
   <time name="dav">   17.65   17.66</time>
   <time name="total">   20.15   20.15</time>
   <dipole>
    <v name="dipole">      0.00000000       0.00000000      -0.09364152 </v>
    <i name="Tr[quadrupol]">  -2528.68622579 </i>
    <i name="Echarged">      0.00000000 </i>
    <i name="Edipol_quadrupol">      0.00000000 </i>
    <i name="Eion">      0.00000000 </i>
   </dipole>
   <energy>
    <i name="e_fr_energy">   -253.63176488 </i>
    <i name="e_wo_entrp">   -253.62080873 </i>
    <i name="e_0_energy">   -253.62811283 </i>
   </energy>
  </scstep>
  <scstep>
   <time name="dav">   16.21   16.21</time>
   <time name="total">   18.74   18.74</time>
   <dipole>
    <v name="dipole">      0.00000000       0.00000000      -0.09577411 </v>
    <i name="Tr[quadrupol]">  -2528.66826425 </i>
    <i name="Echarged">      0.00000000 </i>
    <i name="Edipol_quadrupol">      0.00000000 </i>
    <i name="Eion">      0.00000000 </i>
   </dipole>
   <energy>
    <i name="e_fr_energy">   -253.63203602 </i>
    <i name="e_wo_entrp">   -253.62103725 </i>
    <i name="e_0_energy">   -253.62836976 </i>
   </energy>
  </scstep>
  <scstep>
   <time name="dav">   16.79   16.79</time>
   <time name="total">   19.32   19.32</time>
   <dipole>
    <v name="dipole">      0.00000000       0.00000000      -0.09676333 </v>
    <i name="Tr[quadrupol]">  -2528.69716285 </i>
    <i name="Echarged">      0.00000000 </i>
    <i name="Edipol_quadrupol">      0.00000000 </i>
    <i name="Eion">      0.00000000 </i>
   </dipole>
   <energy>
    <i name="e_fr_energy">   -253.63214954 </i>
    <i name="e_wo_entrp">   -253.62107182 </i>
    <i name="e_0_energy">   -253.62845697 </i>
   </energy>
  </scstep>
  <scstep>
   <time name="dav">   16.26   16.27</time>
   <time name="total">   17.35   17.35</time>
   <dipole>
    <v name="dipole">      0.00000000       0.00000000      -0.09632769 </v>
    <i name="Tr[quadrupol]">  -2528.82168085 </i>
    <i name="Echarged">      0.00000000 </i>
    <i name="Edipol_quadrupol">      0.00000000 </i>
    <i name="Eion">      0.00000000 </i>
   </dipole>
   <energy>
    <i name="alphaZ">     62.39199380 </i>
    <i name="ewald">   8136.43039434 </i>
    <i name="hartreedc"> -10562.64742463 </i>
    <i name="XCdc">    258.72886636 </i>
    <i name="pawpsdc">  10749.11083311 </i>
    <i name="pawaedc"> -10686.32988846 </i>
    <i name="eentropy">     -0.01112232 </i>
    <i name="bandstr">  -1111.60892290 </i>
    <i name="atom">   2900.30308171 </i>
    <i name="e_fr_energy">   -253.63218900 </i>
    <i name="e_wo_entrp">   -253.62106668 </i>
    <i name="e_0_energy">   -253.62848156 </i>
   </energy>
  </scstep>
  <structure>
   <crystal>
    <varray name="basis" >
     <v>      10.16000000       0.00000000       0.00000000 </v>
     <v>       0.00000000      11.76000000       0.00000000 </v>
     <v>       0.00000000       0.00000000      15.00000000 </v>
    </varray>
    <i name="volume">   1792.22400000 </i>
    <varray name="rec_basis" >
     <v>       0.09842520       0.00000000       0.00000000 </v>
     <v>       0.00000000       0.08503401       0.00000000 </v>
     <v>       0.00000000       0.00000000       0.06666667 </v>
    </varray>
   </crystal>
   <varray name="positions" >
    <v>       0.99811000       0.00000000       0.00000000 </v>
    <v>       0.16667000       0.00000000       0.00000000 </v>
    <v>       0.33522000       0.00000000       0.00000000 </v>
    <v>       0.08000000       0.12500000       0.00000000 </v>
    <v>       0.25334000       0.12500000       0.00000000 </v>
    <v>       0.99811000       0.25000000       0.00000000 </v>
    <v>       0.16667000       0.25000000       0.00000000 </v>
    <v>       0.33522000       0.25000000       0.00000000 </v>
    <v>       0.08000000       0.37500000       0.00000000 </v>
    <v>       0.25334000       0.37500000       0.00000000 </v>
    <v>       0.99811000       0.50000000       0.00000000 </v>
    <v>       0.16667000       0.50000000       0.00000000 </v>
    <v>       0.33522000       0.50000000       0.00000000 </v>
    <v>       0.08000000       0.62500000       0.00000000 </v>
    <v>       0.25334000       0.62500000       0.00000000 </v>
    <v>       0.99811000       0.75000000       0.00000000 </v>
    <v>       0.16667000       0.75000000       0.00000000 </v>
    <v>       0.33522000       0.75000000       0.00000000 </v>
    <v>       0.08000000       0.87500000       0.00000000 </v>
    <v>       0.25334000       0.87500000       0.00000000 </v>
    <v>       0.49811000       0.00000000       0.00000000 </v>
    <v>       0.66667000       0.00000000       0.00000000 </v>
    <v>       0.83522000       0.00000000       0.00000000 </v>
    <v>       0.58000000       0.12500000       0.00000000 </v>
    <v>       0.75334000       0.12500000       0.00000000 </v>
    <v>       0.49811000       0.25000000       0.00000000 </v>
    <v>       0.66667000       0.25000000       0.00000000 </v>
    <v>       0.83522000       0.25000000       0.00000000 </v>
    <v>       0.58000000       0.37500000       0.00000000 </v>
    <v>       0.75334000       0.37500000       0.00000000 </v>
    <v>       0.49811000       0.50000000       0.00000000 </v>
    <v>       0.66667000       0.50000000       0.00000000 </v>
    <v>       0.83522000       0.50000000       0.00000000 </v>
    <v>       0.58000000       0.62500000       0.00000000 </v>
    <v>       0.75334000       0.62500000       0.00000000 </v>
    <v>       0.49811000       0.75000000       0.00000000 </v>
    <v>       0.66667000       0.75000000       0.00000000 </v>
    <v>       0.83522000       0.75000000       0.00000000 </v>
    <v>       0.58000000       0.87500000       0.00000000 </v>
    <v>       0.75334000       0.87500000       0.00000000 </v>
    <v>       0.41667000       0.12500000       0.13333000 </v>
   </varray>
  </structure>
  <varray name="forces" >
   <v>       0.09615666      -0.07522483      -0.02962475 </v>
   <v>      -0.34553390      -0.17460425      -0.06963587 </v>
   <v>       0.10778861      -0.02384215       0.14180897 </v>
   <v>       0.11994945       0.00000000       0.11981461 </v>
   <v>      -0.01025242       0.00000000       0.12820173 </v>
   <v>       0.09615666       0.07522483      -0.02962475 </v>
   <v>      -0.34553390       0.17460425      -0.06963587 </v>
   <v>       0.10778861       0.02384215       0.14180897 </v>
   <v>       0.19536596      -0.17626846      -0.05389076 </v>
   <v>      -0.13583876      -0.00462683       0.07498031 </v>
   <v>       0.05454480       0.10848263      -0.01113440 </v>
   <v>      -0.02802943       0.03688788       0.00877808 </v>
   <v>      -0.02961219       0.05052331      -0.01209726 </v>
   <v>       0.04308108       0.00000000       0.03464877 </v>
   <v>      -0.07242008       0.00000000      -0.00173576 </v>
   <v>       0.05454480      -0.10848263      -0.01113440 </v>
   <v>      -0.02802943      -0.03688788       0.00877808 </v>
   <v>      -0.02961219      -0.05052331      -0.01209726 </v>
   <v>       0.19536596       0.17626846      -0.05389076 </v>
   <v>      -0.13583876       0.00462683       0.07498031 </v>
   <v>      -0.09998672      -0.02401039       0.14174567 </v>
   <v>       0.33252846      -0.17460525      -0.06964270 </v>
   <v>      -0.08830967      -0.07521278      -0.02965718 </v>
   <v>       0.01161401       0.00000000       0.12844461 </v>
   <v>      -0.11841197       0.00000000       0.11980672 </v>
   <v>      -0.09998672       0.02401039       0.14174567 </v>
   <v>       0.33252846       0.17460525      -0.06964270 </v>
   <v>      -0.08830967       0.07521278      -0.02965718 </v>
   <v>       0.13736674      -0.00471583       0.07501713 </v>
   <v>      -0.19382177      -0.17623096      -0.05389735 </v>
   <v>       0.03746573       0.05055594      -0.01208693 </v>
   <v>       0.01504201       0.03690312       0.00877034 </v>
   <v>      -0.04668596       0.10846474      -0.01113614 </v>
   <v>       0.07395310       0.00000000      -0.00173238 </v>
   <v>      -0.04155680       0.00000000       0.03463527 </v>
   <v>       0.03746573      -0.05055594      -0.01208693 </v>
   <v>       0.01504201      -0.03690312       0.00877034 </v>
   <v>      -0.04668596      -0.10846474      -0.01113614 </v>
   <v>       0.13736674       0.00471583       0.07501713 </v>
   <v>      -0.19382177       0.17623096      -0.05389735 </v>
   <v>      -0.02283746       0.00000000      -0.75867789 </v>
  </varray>
  <varray name="stress" >
   <v>      -4.04826227       0.00000000       0.00606857 </v>
   <v>       0.00000000      -6.47092685       0.00000000 </v>
   <v>       0.00606857       0.00000000      -1.53546273 </v>
  </varray>
  <energy>
   <i name="e_fr_energy">   -253.63218900 </i>
   <i name="e_wo_entrp">   -253.62848156 </i>
   <i name="e_0_energy">     -0.01112232 </i>
  </energy>
  <time name="totalsc">  594.80  594.91</time>
 </calculation>
 <calculation>
  <scstep>
   <time name="dav">   19.97   19.98</time>
   <time name="total">   22.40   22.40</time>
   <dipole>
    <v name="dipole">      0.00000000       0.00000000      -0.09447554 </v>
    <i name="Tr[quadrupol]">  -2527.19063566 </i>
    <i name="Echarged">      0.00000000 </i>
    <i name="Edipol_quadrupol">      0.00000000 </i>
    <i name="Eion">      0.00000000 </i>
   </dipole>
   <energy>
    <i name="alphaZ">     62.40129161 </i>
    <i name="ewald">   8147.12533541 </i>
    <i name="hartreedc"> -10571.25019463 </i>
    <i name="XCdc">    258.87769501 </i>
    <i name="pawpsdc">  10748.94693110 </i>
    <i name="pawaedc"> -10686.16601519 </i>
    <i name="eentropy">     -0.01580756 </i>
    <i name="bandstr">  -1113.91104802 </i>
    <i name="atom">   2900.30308171 </i>
    <i name="e_fr_energy">   -253.68873057 </i>
    <i name="e_wo_entrp">   -253.67292301 </i>
    <i name="e_0_energy">   -253.68346139 </i>
   </energy>
  </scstep>
  <scstep>
   <time name="dav">   23.22   23.22</time>
   <time name="total">   25.62   25.63</time>
   <dipole>
    <v name="dipole">      0.00000000       0.00000000      -0.09168634 </v>
    <i name="Tr[quadrupol]">  -2527.18774358 </i>
    <i name="Echarged">      0.00000000 </i>
    <i name="Edipol_quadrupol">      0.00000000 </i>
    <i name="Eion">      0.00000000 </i>
   </dipole>
   <energy>
    <i name="e_fr_energy">   -253.68375728 </i>
    <i name="e_wo_entrp">   -253.66863926 </i>
    <i name="e_0_energy">   -253.67871794 </i>
   </energy>
  </scstep>
  <scstep>
   <time name="dav">   22.75   22.75</time>
   <time name="total">   25.13   25.13</time>
   <dipole>
    <v name="dipole">      0.00000000       0.00000000      -0.09249276 </v>
    <i name="Tr[quadrupol]">  -2527.18772854 </i>
    <i name="Echarged">      0.00000000 </i>
    <i name="Edipol_quadrupol">      0.00000000 </i>
    <i name="Eion">      0.00000000 </i>
   </dipole>
   <energy>
    <i name="e_fr_energy">   -253.67952475 </i>
    <i name="e_wo_entrp">   -253.66443562 </i>
    <i name="e_0_energy">   -253.67449504 </i>
   </energy>
  </scstep>
  <scstep>
   <time name="dav">   22.99   23.00</time>
   <time name="total">   25.43   25.44</time>
   <dipole>
    <v name="dipole">      0.00000000       0.00000000      -0.09128389 </v>
    <i name="Tr[quadrupol]">  -2527.18841735 </i>
    <i name="Echarged">      0.00000000 </i>
    <i name="Edipol_quadrupol">      0.00000000 </i>
    <i name="Eion">      0.00000000 </i>
   </dipole>
   <energy>
    <i name="e_fr_energy">   -253.67950692 </i>
    <i name="e_wo_entrp">   -253.66435394 </i>
    <i name="e_0_energy">   -253.67445593 </i>
   </energy>
  </scstep>
  <scstep>
   <time name="dav">   19.77   19.77</time>
   <time name="total">   20.88   20.89</time>
   <dipole>
    <v name="dipole">      0.00000000       0.00000000      -0.09170415 </v>
    <i name="Tr[quadrupol]">  -2527.20931653 </i>
    <i name="Echarged">      0.00000000 </i>
    <i name="Edipol_quadrupol">      0.00000000 </i>
    <i name="Eion">      0.00000000 </i>
   </dipole>
   <energy>
    <i name="alphaZ">     62.31203954 </i>
    <i name="ewald">   8147.12533541 </i>
    <i name="hartreedc"> -10573.41097480 </i>
    <i name="XCdc">    258.92688770 </i>
    <i name="pawpsdc">  10789.83773130 </i>
    <i name="pawaedc"> -10727.07115117 </i>
    <i name="eentropy">     -0.01515237 </i>
    <i name="bandstr">  -1111.68729777 </i>
    <i name="atom">   2900.30308171 </i>
    <i name="e_fr_energy">   -253.67950045 </i>
    <i name="e_wo_entrp">   -253.66434808 </i>
    <i name="e_0_energy">   -253.67444966 </i>
   </energy>
  </scstep>
  <structure>
   <crystal>
    <varray name="basis" >
     <v>      10.16000000       0.00000000       0.00000000 </v>
     <v>       0.00000000      11.76000000       0.00000000 </v>
     <v>       0.00000000       0.00000000      15.00000000 </v>
    </varray>
    <i name="volume">   1792.22400000 </i>
    <varray name="rec_basis" >
     <v>       0.09842520       0.00000000       0.00000000 </v>
     <v>       0.00000000       0.08503401       0.00000000 </v>
     <v>       0.00000000       0.00000000       0.06666667 </v>
    </varray>
   </crystal>
   <varray name="positions" >
    <v>       0.99856658      -0.00030859      -0.00009528 </v>
    <v>       0.16502930      -0.00071627      -0.00022396 </v>
    <v>       0.33573181      -0.00009781       0.00045608 </v>
    <v>       0.08056956       0.12500000       0.00038534 </v>
    <v>       0.25329132       0.12500000       0.00041232 </v>
    <v>       0.99856658       0.25030859      -0.00009528 </v>
    <v>       0.16502930       0.25071627      -0.00022396 </v>
    <v>       0.33573181       0.25009781       0.00045608 </v>
    <v>       0.08092765       0.37427690      -0.00017332 </v>
    <v>       0.25269500       0.37498102       0.00024115 </v>
    <v>       0.99836899       0.50044502      -0.00003581 </v>
    <v>       0.16653691       0.50015132       0.00002823 </v>
    <v>       0.33507939       0.50020726      -0.00003891 </v>
    <v>       0.08020456       0.62500000       0.00011144 </v>
    <v>       0.25299613       0.62500000      -0.00000558 </v>
    <v>       0.99836899       0.74955498      -0.00003581 </v>
    <v>       0.16653691       0.74984868       0.00002823 </v>
    <v>       0.33507939       0.74979274      -0.00003891 </v>
    <v>       0.08092765       0.87572310      -0.00017332 </v>
    <v>       0.25269500       0.87501898       0.00024115 </v>
    <v>       0.49763523      -0.00009850       0.00045588 </v>
    <v>       0.66824894      -0.00071628      -0.00022398 </v>
    <v>       0.83480068      -0.00030854      -0.00009538 </v>
    <v>       0.58005515       0.12500000       0.00041310 </v>
    <v>       0.75277775       0.12500000       0.00038532 </v>
    <v>       0.49763523       0.25009850       0.00045588 </v>
    <v>       0.66824894       0.25071628      -0.00022398 </v>
    <v>       0.83480068       0.25030854      -0.00009538 </v>
    <v>       0.58065226       0.37498065       0.00024127 </v>
    <v>       0.75241968       0.37427705      -0.00017334 </v>
    <v>       0.49828790       0.50020739      -0.00003887 </v>
    <v>       0.66674142       0.50015139       0.00002821 </v>
    <v>       0.83499832       0.50044495      -0.00003582 </v>
    <v>       0.58035115       0.62500000      -0.00000557 </v>
    <v>       0.75314268       0.62500000       0.00011139 </v>
    <v>       0.49828790       0.74979261      -0.00003887 </v>
    <v>       0.66674142       0.74984861       0.00002821 </v>
    <v>       0.83499832       0.74955505      -0.00003582 </v>
    <v>       0.58065226       0.87501935       0.00024127 </v>
    <v>       0.75241968       0.87572295      -0.00017334 </v>
    <v>       0.41656156       0.12500000       0.13088996 </v>
   </varray>
  </structure>
  <varray name="forces" >
   <v>      -0.31588434       0.06027662      -0.02993034 </v>
   <v>       0.15921171       0.15357898      -0.04455262 </v>
   <v>      -0.20187497      -0.04812997       0.14831637 </v>
   <v>       0.03153269       0.00000000       0.08909855 </v>
   <v>      -0.06936956       0.00000000       0.15138424 </v>
   <v>      -0.31588434      -0.06027662      -0.02993034 </v>
   <v>       0.15921171      -0.15357898      -0.04455262 </v>
   <v>      -0.20187497       0.04812997       0.14831637 </v>
   <v>      -0.03756291       0.29431134      -0.05106744 </v>
   <v>       0.02422821       0.01488975       0.06654575 </v>
   <v>      -0.11225966      -0.08610326      -0.01496202 </v>
   <v>       0.02502632      -0.01037225       0.00722175 </v>
   <v>       0.03545971      -0.00380227      -0.00741998 </v>
   <v>       0.06536753       0.00000000       0.03848301 </v>
   <v>      -0.05387221       0.00000000      -0.00577215 </v>
   <v>      -0.11225966       0.08610326      -0.01496202 </v>
   <v>       0.02502632       0.01037225       0.00722175 </v>
   <v>       0.03545971       0.00380227      -0.00741998 </v>
   <v>      -0.03756291      -0.29431134      -0.05106744 </v>
   <v>       0.02422821      -0.01488975       0.06654575 </v>
   <v>       0.19490345      -0.04723850       0.14352848 </v>
   <v>      -0.14037871       0.15212019      -0.04426175 </v>
   <v>       0.31268900       0.06014914      -0.02989303 </v>
   <v>       0.07726761       0.00000000       0.15077616 </v>
   <v>      -0.03410206       0.00000000       0.08798056 </v>
   <v>       0.19490345       0.04723850       0.14352848 </v>
   <v>      -0.14037871      -0.15212019      -0.04426175 </v>
   <v>       0.31268900      -0.06014914      -0.02989303 </v>
   <v>      -0.02953022       0.01445835       0.06683257 </v>
   <v>       0.03324804       0.29055999      -0.05024502 </v>
   <v>      -0.04069240      -0.00630877      -0.00694265 </v>
   <v>      -0.01702094      -0.01038549       0.00669086 </v>
   <v>       0.10964958      -0.08413976      -0.01551674 </v>
   <v>       0.05181759       0.00000000      -0.00579829 </v>
   <v>      -0.06723962       0.00000000       0.03736578 </v>
   <v>      -0.04069240       0.00630877      -0.00694265 </v>
   <v>      -0.01702094       0.01038549       0.00669086 </v>
   <v>       0.10964958       0.08413976      -0.01551674 </v>
   <v>      -0.02953022      -0.01445835       0.06683257 </v>
   <v>       0.03324804      -0.29055999      -0.05024502 </v>
   <v>       0.00017431       0.00000000      -0.83220622 </v>
  </varray>
  <varray name="stress" >
   <v>      -2.67525890       0.00000000       0.00165763 </v>
   <v>       0.00000000      -6.33370801       0.00000000 </v>
   <v>       0.00165763       0.00000000      -1.65177526 </v>
  </varray>
  <energy>
   <i name="e_fr_energy">   -253.67950045 </i>
   <i name="e_wo_entrp">   -253.67444966 </i>
   <i name="e_0_energy">     -0.01515237 </i>
  </energy>
  <time name="totalsc">  144.86  144.92</time>
 </calculation>
 <calculation>
  <scstep>
   <time name="dav">   15.52   15.52</time>
   <time name="total">   17.95   17.95</time>
   <dipole>
    <v name="dipole">      0.00000000       0.00000000      -0.09126738 </v>
    <i name="Tr[quadrupol]">  -2527.23858264 </i>
    <i name="Echarged">      0.00000000 </i>
    <i name="Edipol_quadrupol">      0.00000000 </i>
    <i name="Eion">      0.00000000 </i>
   </dipole>
   <energy>
    <i name="alphaZ">     62.52006806 </i>
    <i name="ewald">   8147.16813932 </i>
    <i name="hartreedc"> -10573.49503033 </i>
    <i name="XCdc">    258.92816277 </i>
    <i name="pawpsdc">  10791.57644042 </i>
    <i name="pawaedc"> -10728.80981173 </i>
    <i name="eentropy">     -0.01515259 </i>
    <i name="bandstr">  -1111.85540561 </i>
    <i name="atom">   2900.30308171 </i>
    <i name="e_fr_energy">   -253.67950799 </i>
    <i name="e_wo_entrp">   -253.66435540 </i>
    <i name="e_0_energy">   -253.67445713 </i>
   </energy>
  </scstep>
  <scstep>
   <time name="dav">   15.39   15.39</time>
   <time name="total">   16.51   16.51</time>
   <dipole>
    <v name="dipole">      0.00000000       0.00000000      -0.09121427 </v>
    <i name="Tr[quadrupol]">  -2527.24102442 </i>
    <i name="Echarged">      0.00000000 </i>
    <i name="Edipol_quadrupol">      0.00000000 </i>
    <i name="Eion">      0.00000000 </i>
   </dipole>
   <energy>
    <i name="alphaZ">     62.52027492 </i>
    <i name="ewald">   8147.16813932 </i>
    <i name="hartreedc"> -10573.52998137 </i>
    <i name="XCdc">    258.92862001 </i>
    <i name="pawpsdc">  10792.05455683 </i>
    <i name="pawaedc"> -10729.28783567 </i>
    <i name="eentropy">     -0.01515612 </i>
    <i name="bandstr">  -1111.82121253 </i>
    <i name="atom">   2900.30308171 </i>
    <i name="e_fr_energy">   -253.67951291 </i>
    <i name="e_wo_entrp">   -253.66435679 </i>
    <i name="e_0_energy">   -253.67446087 </i>
   </energy>
  </scstep>
  <structure>
   <crystal>
    <varray name="basis" >
     <v>      10.16000000       0.00000000       0.00000000 </v>
     <v>       0.00000000      11.76000000       0.00000000 </v>
     <v>       0.00000000       0.00000000      15.00000000 </v>
    </varray>
    <i name="volume">   1792.22400000 </i>
    <varray name="rec_basis" >
     <v>       0.09842520       0.00000000       0.00000000 </v>
     <v>       0.00000000       0.08503401       0.00000000 </v>
     <v>       0.00000000       0.00000000       0.06666667 </v>
    </varray>
   </crystal>
   <varray name="positions" >
    <v>       0.99856837      -0.00030980      -0.00009565 </v>
    <v>       0.16502289      -0.00071908      -0.00022484 </v>
    <v>       0.33573381      -0.00009819       0.00045787 </v>
    <v>       0.08057178       0.12500000       0.00038685 </v>
    <v>       0.25329113       0.12500000       0.00041393 </v>
    <v>       0.99856837       0.25030980      -0.00009565 </v>
    <v>       0.16502289       0.25071908      -0.00022484 </v>
    <v>       0.33573381       0.25009819       0.00045787 </v>
    <v>       0.08093128       0.37427407      -0.00017400 </v>
    <v>       0.25269247       0.37498095       0.00024209 </v>
    <v>       0.99837001       0.50044677      -0.00003595 </v>
    <v>       0.16653639       0.50015192       0.00002834 </v>
    <v>       0.33507884       0.50020807      -0.00003906 </v>
    <v>       0.08020536       0.62500000       0.00011187 </v>
    <v>       0.25299478       0.62500000      -0.00000560 </v>
    <v>       0.99837001       0.74955323      -0.00003595 </v>
    <v>       0.16653639       0.74984808       0.00002834 </v>
    <v>       0.33507884       0.74979193      -0.00003906 </v>
    <v>       0.08093128       0.87572593      -0.00017400 </v>
    <v>       0.25269247       0.87501905       0.00024209 </v>
    <v>       0.49763338      -0.00009888       0.00045766 </v>
    <v>       0.66825512      -0.00071908      -0.00022486 </v>
    <v>       0.83479904      -0.00030975      -0.00009576 </v>
    <v>       0.58005536       0.12500000       0.00041472 </v>
    <v>       0.75277555       0.12500000       0.00038683 </v>
    <v>       0.49763338       0.25009888       0.00045766 </v>
    <v>       0.66825512       0.25071908      -0.00022486 </v>
    <v>       0.83479904       0.25030975      -0.00009576 </v>
    <v>       0.58065481       0.37498058       0.00024221 </v>
    <v>       0.75241608       0.37427423      -0.00017402 </v>
    <v>       0.49828859       0.50020821      -0.00003903 </v>
    <v>       0.66674170       0.50015198       0.00002832 </v>
    <v>       0.83499745       0.50044669      -0.00003596 </v>
    <v>       0.58035252       0.62500000      -0.00000559 </v>
    <v>       0.75314190       0.62500000       0.00011183 </v>
    <v>       0.49828859       0.74979179      -0.00003903 </v>
    <v>       0.66674170       0.74984802       0.00002832 </v>
    <v>       0.83499745       0.74955331      -0.00003596 </v>
    <v>       0.58065481       0.87501942       0.00024221 </v>
    <v>       0.75241608       0.87572577      -0.00017402 </v>
    <v>       0.41656114       0.12500000       0.13088041 </v>
   </varray>
  </structure>
  <varray name="forces" >
   <v>      -0.31813919       0.06069079      -0.02998032 </v>
   <v>       0.16264667       0.15563570      -0.04443983 </v>
   <v>      -0.20600327      -0.04890291       0.14843451 </v>
   <v>       0.03224795       0.00000000       0.08870130 </v>
   <v>      -0.07221191       0.00000000       0.15176306 </v>
   <v>      -0.31813919      -0.06069079      -0.02998032 </v>
   <v>       0.16264667      -0.15563570      -0.04443983 </v>
   <v>      -0.20600327       0.04890291       0.14843451 </v>
   <v>      -0.03821587       0.29751920      -0.05110798 </v>
   <v>       0.02447167       0.01558769       0.06640636 </v>
   <v>      -0.11385161      -0.08697272      -0.01496538 </v>
   <v>       0.02547031      -0.01075352       0.00724549 </v>
   <v>       0.03647201      -0.00381637      -0.00740296 </v>
   <v>       0.06571269       0.00000000       0.03855327 </v>
   <v>      -0.05354697       0.00000000      -0.00576343 </v>
   <v>      -0.11385161       0.08697272      -0.01496538 </v>
   <v>       0.02547031       0.01075352       0.00724549 </v>
   <v>       0.03647201       0.00381637      -0.00740296 </v>
   <v>      -0.03821587      -0.29751920      -0.05110798 </v>
   <v>       0.02447167      -0.01558769       0.06640636 </v>
   <v>       0.19741048      -0.04829448       0.14392340 </v>
   <v>      -0.14349259       0.15417901      -0.04414010 </v>
   <v>       0.31504524       0.06057349      -0.02994280 </v>
   <v>       0.08026583       0.00000000       0.15115706 </v>
   <v>      -0.03466281       0.00000000       0.08758616 </v>
   <v>       0.19741048       0.04829448       0.14392340 </v>
   <v>      -0.14349259      -0.15417901      -0.04414010 </v>
   <v>       0.31504524      -0.06057349      -0.02994280 </v>
   <v>      -0.02961505       0.01514349       0.06669461 </v>
   <v>       0.03403960       0.29376456      -0.05028741 </v>
   <v>      -0.04161050      -0.00632140      -0.00692453 </v>
   <v>      -0.01711607      -0.01077178       0.00671510 </v>
   <v>       0.11133989      -0.08500485      -0.01552383 </v>
   <v>       0.05165671       0.00000000      -0.00579099 </v>
   <v>      -0.06741882       0.00000000       0.03743301 </v>
   <v>      -0.04161050       0.00632140      -0.00692453 </v>
   <v>      -0.01711607       0.01077178       0.00671510 </v>
   <v>       0.11133989       0.08500485      -0.01552383 </v>
   <v>      -0.02961505      -0.01514349       0.06669461 </v>
   <v>       0.03403960      -0.29376456      -0.05028741 </v>
   <v>       0.00025388       0.00000000      -0.83304812 </v>
  </varray>
  <varray name="stress" >
   <v>      -2.67635255       0.00000000       0.00217346 </v>
   <v>       0.00000000      -6.33724192       0.00000000 </v>
   <v>       0.00217346       0.00000000      -1.61127830 </v>
  </varray>
  <energy>
   <i name="e_fr_energy">   -253.67951291 </i>
   <i name="e_wo_entrp">   -253.67446087 </i>
   <i name="e_0_energy">     -0.01515612 </i>
  </energy>
  <time name="totalsc">   59.88   59.91</time>
 </calculation>
 <calculation>
  <scstep>
   <time name="dav">   20.22   20.22</time>
   <time name="total">   22.69   22.70</time>
   <dipole>
    <v name="dipole">      0.00000000       0.00000000      -0.09102531 </v>
    <i name="Tr[quadrupol]">  -2526.93432689 </i>
    <i name="Echarged">      0.00000000 </i>
    <i name="Edipol_quadrupol">      0.00000000 </i>
    <i name="Eion">      0.00000000 </i>
   </dipole>
   <energy>
    <i name="alphaZ">     62.62341088 </i>
    <i name="ewald">   8154.91245491 </i>
    <i name="hartreedc"> -10580.37376298 </i>
    <i name="XCdc">    259.02319347 </i>
    <i name="pawpsdc">  10792.72773395 </i>
    <i name="pawaedc"> -10729.96087102 </i>
    <i name="eentropy">     -0.01598749 </i>
    <i name="bandstr">  -1112.96277113 </i>
    <i name="atom">   2900.30308171 </i>
    <i name="e_fr_energy">   -253.72351770 </i>
    <i name="e_wo_entrp">   -253.70753021 </i>
    <i name="e_0_energy">   -253.71818854 </i>
   </energy>
  </scstep>
  <scstep>
   <time name="dav">   24.39   24.40</time>
   <time name="total">   26.88   26.89</time>
   <dipole>
    <v name="dipole">      0.00000000       0.00000000      -0.09444904 </v>
    <i name="Tr[quadrupol]">  -2526.95708654 </i>
    <i name="Echarged">      0.00000000 </i>
    <i name="Edipol_quadrupol">      0.00000000 </i>
    <i name="Eion">      0.00000000 </i>
   </dipole>
   <energy>
    <i name="e_fr_energy">   -253.72230218 </i>
    <i name="e_wo_entrp">   -253.70603814 </i>
    <i name="e_0_energy">   -253.71688083 </i>
   </energy>
  </scstep>
  <scstep>
   <time name="dav">   23.27   23.27</time>
   <time name="total">   25.73   25.73</time>
   <dipole>
    <v name="dipole">      0.00000000       0.00000000      -0.09154622 </v>
    <i name="Tr[quadrupol]">  -2526.94140971 </i>
    <i name="Echarged">      0.00000000 </i>
    <i name="Edipol_quadrupol">      0.00000000 </i>
    <i name="Eion">      0.00000000 </i>
   </dipole>
   <energy>
    <i name="e_fr_energy">   -253.72169431 </i>
    <i name="e_wo_entrp">   -253.70541603 </i>
    <i name="e_0_energy">   -253.71626822 </i>
   </energy>
  </scstep>
  <scstep>
   <time name="dav">   22.20   22.20</time>
   <time name="total">   24.67   24.67</time>
   <dipole>
    <v name="dipole">      0.00000000       0.00000000      -0.09302633 </v>
    <i name="Tr[quadrupol]">  -2526.93694225 </i>
    <i name="Echarged">      0.00000000 </i>
    <i name="Edipol_quadrupol">      0.00000000 </i>
    <i name="Eion">      0.00000000 </i>
   </dipole>
   <energy>
    <i name="e_fr_energy">   -253.72153909 </i>
    <i name="e_wo_entrp">   -253.70519414 </i>
    <i name="e_0_energy">   -253.71609078 </i>
   </energy>
  </scstep>
  <scstep>
   <time name="dav">   16.41   16.51</time>
   <time name="total">   17.53   17.63</time>
   <dipole>
    <v name="dipole">      0.00000000       0.00000000      -0.09381331 </v>
    <i name="Tr[quadrupol]">  -2526.94056438 </i>
    <i name="Echarged">      0.00000000 </i>
    <i name="Edipol_quadrupol">      0.00000000 </i>
    <i name="Eion">      0.00000000 </i>
   </dipole>
   <energy>
    <i name="alphaZ">     62.40461591 </i>
    <i name="ewald">   8154.91245491 </i>
    <i name="hartreedc"> -10581.78689725 </i>
    <i name="XCdc">    259.04927533 </i>
    <i name="pawpsdc">  10810.10564654 </i>
    <i name="pawaedc"> -10747.34468444 </i>
    <i name="eentropy">     -0.01636344 </i>
    <i name="bandstr">  -1111.34866792 </i>
    <i name="atom">   2900.30308171 </i>
    <i name="e_fr_energy">   -253.72153868 </i>
    <i name="e_wo_entrp">   -253.70517523 </i>
    <i name="e_0_energy">   -253.71608420 </i>
   </energy>
  </scstep>
  <structure>
   <crystal>
    <varray name="basis" >
     <v>      10.16000000       0.00000000       0.00000000 </v>
     <v>       0.00000000      11.76000000       0.00000000 </v>
     <v>       0.00000000       0.00000000      15.00000000 </v>
    </varray>
    <i name="volume">   1792.22400000 </i>
    <varray name="rec_basis" >
     <v>       0.09842520       0.00000000       0.00000000 </v>
     <v>       0.00000000       0.08503401       0.00000000 </v>
     <v>       0.00000000       0.00000000       0.06666667 </v>
    </varray>
   </crystal>
   <varray name="positions" >
    <v>       0.99813545      -0.00034958      -0.00018254 </v>
    <v>       0.16457396      -0.00078534      -0.00039304 </v>
    <v>       0.33555644      -0.00023114       0.00088062 </v>
    <v>       0.08090897       0.12500000       0.00069321 </v>
    <v>       0.25312032       0.12500000       0.00082045 </v>
    <v>       0.99813545       0.25034958      -0.00018254 </v>
    <v>       0.16457396       0.25078534      -0.00039304 </v>
    <v>       0.33555644       0.25023114       0.00088062 </v>
    <v>       0.08129498       0.37445514      -0.00032732 </v>
    <v>       0.25243530       0.37499944       0.00044890 </v>
    <v>       0.99826061       0.50050511      -0.00007373 </v>
    <v>       0.16652507       0.50020500       0.00005182 </v>
    <v>       0.33508643       0.50030004      -0.00006784 </v>
    <v>       0.08043713       0.62500000       0.00021833 </v>
    <v>       0.25272154       0.62500000      -0.00001624 </v>
    <v>       0.99826061       0.74949489      -0.00007373 </v>
    <v>       0.16652507       0.74979500       0.00005182 </v>
    <v>       0.33508643       0.74969996      -0.00006784 </v>
    <v>       0.08129498       0.87554486      -0.00032732 </v>
    <v>       0.25243530       0.87500056       0.00044890 </v>
    <v>       0.49781082      -0.00023109       0.00087407 </v>
    <v>       0.66871379      -0.00078792      -0.00039266 </v>
    <v>       0.83524338      -0.00034972      -0.00018265 </v>
    <v>       0.58024572       0.12500000       0.00082077 </v>
    <v>       0.75243690       0.12500000       0.00069162 </v>
    <v>       0.49781082       0.25023109       0.00087407 </v>
    <v>       0.66871379       0.25078792      -0.00039266 </v>
    <v>       0.83524338       0.25034972      -0.00018265 </v>
    <v>       0.58090492       0.37499811       0.00044947 </v>
    <v>       0.75204734       0.37444874      -0.00032621 </v>
    <v>       0.49828826       0.50029582      -0.00006713 </v>
    <v>       0.66674073       0.50020506       0.00005105 </v>
    <v>       0.83511949       0.50050848      -0.00007451 </v>
    <v>       0.58062537       0.62500000      -0.00001627 </v>
    <v>       0.75291010       0.62500000       0.00021672 </v>
    <v>       0.49828826       0.74970418      -0.00006713 </v>
    <v>       0.66674073       0.74979494       0.00005105 </v>
    <v>       0.83511949       0.74949152      -0.00007451 </v>
    <v>       0.58090492       0.87500189       0.00044947 </v>
    <v>       0.75204734       0.87555126      -0.00032621 </v>
    <v>       0.41651001       0.12500000       0.12856477 </v>
   </varray>
  </structure>
  <varray name="forces" >
   <v>      -0.15561280       0.05893355      -0.02824984 </v>
   <v>       0.18977675       0.15222324      -0.02711193 </v>
   <v>      -0.11550768      -0.04524750       0.15293639 </v>
   <v>      -0.04779751       0.00000000       0.06393167 </v>
   <v>      -0.10536161       0.00000000       0.15495820 </v>
   <v>      -0.15561280      -0.05893355      -0.02824984 </v>
   <v>       0.18977675      -0.15222324      -0.02711193 </v>
   <v>      -0.11550768       0.04524750       0.15293639 </v>
   <v>      -0.11813314       0.24510041      -0.05068575 </v>
   <v>       0.03765058       0.02395974       0.05731090 </v>
   <v>      -0.10505987      -0.09022453      -0.01663923 </v>
   <v>       0.02807688      -0.00559505       0.00692684 </v>
   <v>       0.07758161      -0.01725511      -0.00259696 </v>
   <v>       0.03769643       0.00000000       0.04306101 </v>
   <v>      -0.03013342       0.00000000      -0.00696033 </v>
   <v>      -0.10505987       0.09022453      -0.01663923 </v>
   <v>       0.02807688       0.00559505       0.00692684 </v>
   <v>       0.07758161       0.01725511      -0.00259696 </v>
   <v>      -0.11813314      -0.24510041      -0.05068575 </v>
   <v>       0.03765058      -0.02395974       0.05731090 </v>
   <v>       0.11275352      -0.04205863       0.15164137 </v>
   <v>      -0.16911862       0.15858309      -0.02533456 </v>
   <v>       0.15053502       0.05763963      -0.03056030 </v>
   <v>       0.10966920       0.00000000       0.14942933 </v>
   <v>       0.04657571       0.00000000       0.06453616 </v>
   <v>       0.11275352       0.04205863       0.15164137 </v>
   <v>      -0.16911862      -0.15858309      -0.02533456 </v>
   <v>       0.15053502      -0.05763963      -0.03056030 </v>
   <v>      -0.04054360       0.02439225       0.05917613 </v>
   <v>       0.11257428       0.24448835      -0.04744182 </v>
   <v>      -0.08185650      -0.01965647      -0.00287830 </v>
   <v>      -0.01465727      -0.00612465       0.00640339 </v>
   <v>       0.09461571      -0.09165993      -0.01700983 </v>
   <v>       0.02876370       0.00000000      -0.00704818 </v>
   <v>      -0.03606438       0.00000000       0.04196831 </v>
   <v>      -0.08185650       0.01965647      -0.00287830 </v>
   <v>      -0.01465727       0.00612465       0.00640339 </v>
   <v>       0.09461571       0.09165993      -0.01700983 </v>
   <v>      -0.04054360      -0.02439225       0.05917613 </v>
   <v>       0.11257428      -0.24448835      -0.04744182 </v>
   <v>      -0.00949780       0.00000000      -0.87564916 </v>
  </varray>
  <varray name="stress" >
   <v>      -1.88674326       0.00000000       0.00285485 </v>
   <v>       0.00000000      -6.44529463       0.00000000 </v>
   <v>       0.00285485       0.00000000      -1.64710007 </v>
  </varray>
  <energy>
   <i name="e_fr_energy">   -253.72153868 </i>
   <i name="e_wo_entrp">   -253.71608420 </i>
   <i name="e_0_energy">     -0.01636344 </i>
  </energy>
  <time name="totalsc">  143.05  143.26</time>
 </calculation>
 <calculation>
  <scstep>
   <time name="dav">   19.89   19.97</time>
   <time name="total">   22.36   22.43</time>
   <dipole>
    <v name="dipole">      0.00000000       0.00000000      -0.09443202 </v>
    <i name="Tr[quadrupol]">  -2525.97534564 </i>
    <i name="Echarged">      0.00000000 </i>
    <i name="Edipol_quadrupol">      0.00000000 </i>
    <i name="Eion">      0.00000000 </i>
   </dipole>
   <energy>
    <i name="alphaZ">     62.40151008 </i>
    <i name="ewald">   8178.10665300 </i>
    <i name="hartreedc"> -10601.84044466 </i>
    <i name="XCdc">    259.33748759 </i>
    <i name="pawpsdc">  10811.29727168 </i>
    <i name="pawaedc"> -10748.53621934 </i>
    <i name="eentropy">     -0.01019265 </i>
    <i name="bandstr">  -1114.88471396 </i>
    <i name="atom">   2900.30308171 </i>
    <i name="e_fr_energy">   -253.82556655 </i>
    <i name="e_wo_entrp">   -253.81537390 </i>
    <i name="e_0_energy">   -253.82216900 </i>
   </energy>
  </scstep>
  <scstep>
   <time name="dav">   24.24   24.25</time>
   <time name="total">   26.71   26.71</time>
   <dipole>
    <v name="dipole">      0.00000000       0.00000000      -0.10941193 </v>
    <i name="Tr[quadrupol]">  -2525.99669309 </i>
    <i name="Echarged">      0.00000000 </i>
    <i name="Edipol_quadrupol">      0.00000000 </i>
    <i name="Eion">      0.00000000 </i>
   </dipole>
   <energy>
    <i name="e_fr_energy">   -253.81575377 </i>
    <i name="e_wo_entrp">   -253.80286454 </i>
    <i name="e_0_energy">   -253.81145736 </i>
   </energy>
  </scstep>
  <scstep>
   <time name="dav">   23.15   23.15</time>
   <time name="total">   25.62   25.62</time>
   <dipole>
    <v name="dipole">      0.00000000       0.00000000      -0.10074742 </v>
    <i name="Tr[quadrupol]">  -2525.98464619 </i>
    <i name="Echarged">      0.00000000 </i>
    <i name="Edipol_quadrupol">      0.00000000 </i>
    <i name="Eion">      0.00000000 </i>
   </dipole>
   <energy>
    <i name="e_fr_energy">   -253.81016921 </i>
    <i name="e_wo_entrp">   -253.79728501 </i>
    <i name="e_0_energy">   -253.80587448 </i>
   </energy>
  </scstep>
  <scstep>
   <time name="dav">   22.43   22.43</time>
   <time name="total">   24.92   24.92</time>
   <dipole>
    <v name="dipole">      0.00000000       0.00000000      -0.10724388 </v>
    <i name="Tr[quadrupol]">  -2525.99576266 </i>
    <i name="Echarged">      0.00000000 </i>
    <i name="Edipol_quadrupol">      0.00000000 </i>
    <i name="Eion">      0.00000000 </i>
   </dipole>
   <energy>
    <i name="e_fr_energy">   -253.80837055 </i>
    <i name="e_wo_entrp">   -253.79476103 </i>
    <i name="e_0_energy">   -253.80383404 </i>
   </energy>
  </scstep>
  <scstep>
   <time name="dav">   22.29   22.29</time>
   <time name="total">   24.75   24.76</time>
   <dipole>
    <v name="dipole">      0.00000000       0.00000000      -0.10953362 </v>
    <i name="Tr[quadrupol]">  -2526.00314310 </i>
    <i name="Echarged">      0.00000000 </i>
    <i name="Edipol_quadrupol">      0.00000000 </i>
    <i name="Eion">      0.00000000 </i>
   </dipole>
   <energy>
    <i name="e_fr_energy">   -253.80837810 </i>
    <i name="e_wo_entrp">   -253.79484021 </i>
    <i name="e_0_energy">   -253.80386547 </i>
   </energy>
  </scstep>
  <scstep>
   <time name="dav">   17.36   17.36</time>
   <time name="total">   18.47   18.48</time>
   <dipole>
    <v name="dipole">      0.00000000       0.00000000      -0.11207669 </v>
    <i name="Tr[quadrupol]">  -2526.01686840 </i>
    <i name="Echarged">      0.00000000 </i>
    <i name="Edipol_quadrupol">      0.00000000 </i>
    <i name="Eion">      0.00000000 </i>
   </dipole>
   <energy>
    <i name="alphaZ">     61.80859154 </i>
    <i name="ewald">   8178.10665300 </i>
    <i name="hartreedc"> -10605.92171486 </i>
    <i name="XCdc">    259.39979634 </i>
    <i name="pawpsdc">  10869.92275659 </i>
    <i name="pawaedc"> -10807.18119502 </i>
    <i name="eentropy">     -0.01352737 </i>
    <i name="bandstr">  -1110.23283358 </i>
    <i name="atom">   2900.30308171 </i>
    <i name="e_fr_energy">   -253.80839165 </i>
    <i name="e_wo_entrp">   -253.79486428 </i>
    <i name="e_0_energy">   -253.80388253 </i>
   </energy>
  </scstep>
  <structure>
   <crystal>
    <varray name="basis" >
     <v>      10.16000000       0.00000000       0.00000000 </v>
     <v>       0.00000000      11.76000000       0.00000000 </v>
     <v>       0.00000000       0.00000000      15.00000000 </v>
    </varray>
    <i name="volume">   1792.22400000 </i>
    <varray name="rec_basis" >
     <v>       0.09842520       0.00000000       0.00000000 </v>
     <v>       0.00000000       0.08503401       0.00000000 </v>
     <v>       0.00000000       0.00000000       0.06666667 </v>
    </varray>
   </crystal>
   <varray name="positions" >
    <v>       0.99683671      -0.00046894      -0.00044322 </v>
    <v>       0.16322717      -0.00098414      -0.00089765 </v>
    <v>       0.33502434      -0.00063001       0.00214889 </v>
    <v>       0.08192055       0.12500000       0.00161227 </v>
    <v>       0.25260789       0.12500000       0.00204002 </v>
    <v>       0.99683671       0.25046894      -0.00044322 </v>
    <v>       0.16322717       0.25098414      -0.00089765 </v>
    <v>       0.33502434       0.25063001       0.00214889 </v>
    <v>       0.08238607       0.37499836      -0.00078727 </v>
    <v>       0.25166378       0.37505491       0.00106932 </v>
    <v>       0.99793243       0.50068015      -0.00018706 </v>
    <v>       0.16649111       0.50036423       0.00012226 </v>
    <v>       0.33510921       0.50057596      -0.00015418 </v>
    <v>       0.08113242       0.62500000       0.00053771 </v>
    <v>       0.25190180       0.62500000      -0.00004816 </v>
    <v>       0.99793243       0.74931985      -0.00018706 </v>
    <v>       0.16649111       0.74963577       0.00012226 </v>
    <v>       0.33510921       0.74942404      -0.00015418 </v>
    <v>       0.08238607       0.87500164      -0.00078727 </v>
    <v>       0.25166378       0.87494509       0.00106932 </v>
    <v>       0.49834316      -0.00062771       0.00212331 </v>
    <v>       0.67008981      -0.00099444      -0.00089605 </v>
    <v>       0.83657638      -0.00046963      -0.00044331 </v>
    <v>       0.58081677       0.12500000       0.00203893 </v>
    <v>       0.75142094       0.12500000       0.00160602 </v>
    <v>       0.49834316       0.25062771       0.00212331 </v>
    <v>       0.67008981       0.25099444      -0.00089605 </v>
    <v>       0.83657638       0.25046963      -0.00044331 </v>
    <v>       0.58165526       0.37505071       0.00107126 </v>
    <v>       0.75094111       0.37497228      -0.00078279 </v>
    <v>       0.49828725       0.50055866      -0.00015144 </v>
    <v>       0.66673781       0.50036429       0.00011925 </v>
    <v>       0.83548558       0.50069384      -0.00019017 </v>
    <v>       0.58144391       0.62500000      -0.00004828 </v>
    <v>       0.75221468       0.62500000       0.00053138 </v>
    <v>       0.49828725       0.74944134      -0.00015144 </v>
    <v>       0.66673781       0.74963571       0.00011925 </v>
    <v>       0.83548558       0.74930616      -0.00019017 </v>
    <v>       0.58165526       0.87494929       0.00107126 </v>
    <v>       0.75094111       0.87502772      -0.00078279 </v>
    <v>       0.41635662       0.12500000       0.12161785 </v>
   </varray>
  </structure>
  <varray name="forces" >
   <v>       0.41897027       0.04994271      -0.03547281 </v>
   <v>       0.27476543       0.15032994       0.02927050 </v>
   <v>       0.08910901      -0.02405420       0.15624099 </v>
   <v>      -0.32053322       0.00000000       0.00988201 </v>
   <v>      -0.17889389       0.00000000       0.14794726 </v>
   <v>       0.41897027      -0.04994271      -0.03547281 </v>
   <v>       0.27476543      -0.15032994       0.02927050 </v>
   <v>       0.08910901       0.02405420       0.15624099 </v>
   <v>      -0.39335295       0.09425369      -0.05190309 </v>
   <v>       0.10616364       0.05036064       0.04308070 </v>
   <v>      -0.03439382      -0.09789641      -0.02384596 </v>
   <v>       0.04074249       0.01573472       0.00265264 </v>
   <v>       0.15771865      -0.06127992       0.01020545 </v>
   <v>      -0.08596815       0.00000000       0.05124100 </v>
   <v>       0.06393897       0.00000000      -0.01309675 </v>
   <v>      -0.03439382       0.09789641      -0.02384596 </v>
   <v>       0.04074249      -0.01573472       0.00265264 </v>
   <v>       0.15771865       0.06127992       0.01020545 </v>
   <v>      -0.39335295      -0.09425369      -0.05190309 </v>
   <v>       0.10616364      -0.05036064       0.04308070 </v>
   <v>      -0.09293160      -0.02199222       0.16002239 </v>
   <v>      -0.26160188       0.16757670       0.03328212 </v>
   <v>      -0.43516601       0.05235257      -0.03117789 </v>
   <v>       0.17024090       0.00000000       0.14072357 </v>
   <v>       0.33605586       0.00000000       0.01143520 </v>
   <v>      -0.09293160       0.02199222       0.16002239 </v>
   <v>      -0.26160188      -0.16757670       0.03328212 </v>
   <v>      -0.43516601      -0.05235257      -0.03117789 </v>
   <v>      -0.09935516       0.04864750       0.04220005 </v>
   <v>       0.39941924       0.10961608      -0.04499228 </v>
   <v>      -0.17000206      -0.05594287       0.01102440 </v>
   <v>      -0.01053542       0.01670533       0.00287757 </v>
   <v>       0.01609853      -0.10460909      -0.02634904 </v>
   <v>      -0.06969037       0.00000000      -0.01429972 </v>
   <v>       0.08237741       0.00000000       0.04836708 </v>
   <v>      -0.17000206       0.05594287       0.01102440 </v>
   <v>      -0.01053542      -0.01670533       0.00287757 </v>
   <v>       0.01609853       0.10460909      -0.02634904 </v>
   <v>      -0.09935516      -0.04864750       0.04220005 </v>
   <v>       0.39941924      -0.10961608      -0.04499228 </v>
   <v>      -0.00882428       0.00000000      -0.93643113 </v>
  </varray>
  <varray name="stress" >
   <v>       0.78915416       0.00000000       0.00796382 </v>
   <v>       0.00000000      -6.99355748       0.00000000 </v>
   <v>       0.00796382       0.00000000      -1.59001889 </v>
  </varray>
  <energy>
[...]
       <r>     0.1222     0.7829    69.7579 </r>
       <r>     0.1916     4.1455    70.0455 </r>
       <r>     0.2610     8.5318    70.6376 </r>
       <r>     0.3304     5.8059    71.0404 </r>
       <r>     0.3998     1.8030    71.1656 </r>
       <r>     0.4692     1.1269    71.2438 </r>
       <r>     0.5386     4.7433    71.5729 </r>
       <r>     0.6080     6.3397    72.0128 </r>
       <r>     0.6773     3.7208    72.2710 </r>
       <r>     0.7467     5.8580    72.6775 </r>
       <r>     0.8161     7.2185    73.1784 </r>
       <r>     0.8855     3.5804    73.4269 </r>
       <r>     0.9549     4.5774    73.7445 </r>
       <r>     1.0243     9.5717    74.4087 </r>
       <r>     1.0937     9.7579    75.0858 </r>
       <r>     1.1631     7.5681    75.6109 </r>
       <r>     1.2325     8.8914    76.2279 </r>
       <r>     1.3019    11.3449    77.0152 </r>
       <r>     1.3713    12.1254    77.8566 </r>
       <r>     1.4407    10.6934    78.5986 </r>
       <r>     1.5100    10.5046    79.3275 </r>
       <r>     1.5794    12.4093    80.1886 </r>
       <r>     1.6488    13.4945    81.1250 </r>
       <r>     1.7182    10.0249    81.8206 </r>
       <r>     1.7876     3.0583    82.0329 </r>
       <r>     1.8570    -0.2151    82.0179 </r>
       <r>     1.9264    -0.2293    82.0020 </r>
       <r>     1.9958    -0.0281    82.0001 </r>
       <r>     2.0652    -0.0011    82.0000 </r>
       <r>     2.1346    -0.0000    82.0000 </r>
       <r>     2.2040    -0.0000    82.0000 </r>
       <r>     2.2733    -0.0000    82.0000 </r>
       <r>     2.3427    -0.0000    82.0000 </r>
       <r>     2.4121     0.0000    82.0000 </r>
       <r>     2.4815     0.0000    82.0000 </r>
       <r>     2.5509     0.0000    82.0000 </r>
       <r>     2.6203     0.0000    82.0000 </r>
       <r>     2.6897     0.0000    82.0000 </r>
       <r>     2.7591     0.0000    82.0000 </r>
      </set>
      <set comment="spin 2">
       <r>   -18.0583     0.0000     0.0000 </r>
       <r>   -17.9889     0.0000     0.0000 </r>
       <r>   -17.9195    -0.0000    -0.0000 </r>
       <r>   -17.8501    -0.0000    -0.0000 </r>
       <r>   -17.7807    -0.0000    -0.0000 </r>
       <r>   -17.7113    -0.0000    -0.0000 </r>
       <r>   -17.6420    -0.0000    -0.0000 </r>
       <r>   -17.5726    -0.0000    -0.0000 </r>
       <r>   -17.5032    -0.0000    -0.0000 </r>
       <r>   -17.4338    -0.0000    -0.0000 </r>
       <r>   -17.3644    -0.0001    -0.0000 </r>
       <r>   -17.2950    -0.0036    -0.0003 </r>
       <r>   -17.2256    -0.0486    -0.0036 </r>
       <r>   -17.1562    -0.1855    -0.0165 </r>
       <r>   -17.0868     0.3934     0.0108 </r>
       <r>   -17.0174     3.4986     0.2536 </r>
       <r>   -16.9480     6.4903     0.7039 </r>
       <r>   -16.8787     5.4653     1.0832 </r>
       <r>   -16.8093     5.1924     1.4435 </r>
       <r>   -16.7399     5.6695     1.8369 </r>
       <r>   -16.6705     5.1153     2.1919 </r>
       <r>   -16.6011     5.1288     2.5478 </r>
       <r>   -16.5317     4.7330     2.8762 </r>
       <r>   -16.4623     4.4674     3.1862 </r>
       <r>   -16.3929     2.0642     3.3294 </r>
       <r>   -16.3235     1.6661     3.4450 </r>
       <r>   -16.2541     4.0612     3.7268 </r>
       <r>   -16.1847     4.5614     4.0434 </r>
       <r>   -16.1153     4.8258     4.3782 </r>
       <r>   -16.0460     3.6058     4.6284 </r>
       <r>   -15.9766     0.7692     4.6818 </r>
       <r>   -15.9072    -0.2938     4.6614 </r>
       <r>   -15.8378    -0.1321     4.6523 </r>
       <r>   -15.7684     1.9423     4.7870 </r>
       <r>   -15.6990     4.7496     5.1166 </r>
       <r>   -15.6296     4.7004     5.4428 </r>
       <r>   -15.5602     4.7496     5.7724 </r>
       <r>   -15.4908     3.0627     5.9849 </r>
       <r>   -15.4214     0.4339     6.0150 </r>
       <r>   -15.3520    -0.1703     6.0032 </r>
       <r>   -15.2827    -0.0639     5.9988 </r>
       <r>   -15.2133    -0.1476     5.9885 </r>
       <r>   -15.1439     0.0061     5.9889 </r>
       <r>   -15.0745     2.2463     6.1448 </r>
       <r>   -15.0051     4.8312     6.4800 </r>
       <r>   -14.9357     4.6176     6.8005 </r>
       <r>   -14.8663     4.7285     7.1286 </r>
       <r>   -14.7969     2.8412     7.3257 </r>
       <r>   -14.7275     0.3138     7.3475 </r>
       <r>   -14.6581    -0.1674     7.3359 </r>
       <r>   -14.5887    -0.0725     7.3309 </r>
       <r>   -14.5193    -0.1520     7.3203 </r>
       <r>   -14.4500     0.3179     7.3424 </r>
       <r>   -14.3806     2.5622     7.5202 </r>
       <r>   -14.3112     4.4681     7.8302 </r>
       <r>   -14.2418     4.6323     8.1517 </r>
       <r>   -14.1724     4.3772     8.4554 </r>
       <r>   -14.1030     4.2450     8.7500 </r>
       <r>   -14.0336     3.1021     8.9652 </r>
       <r>   -13.9642     0.6291     9.0089 </r>
       <r>   -13.8948     1.0175     9.0795 </r>
       <r>   -13.8254     3.4765     9.3207 </r>
       <r>   -13.7560     3.7684     9.5822 </r>
       <r>   -13.6867     2.0260     9.7228 </r>
       <r>   -13.6173     1.5866     9.8329 </r>
       <r>   -13.5479     0.6041     9.8748 </r>
       <r>   -13.4785     1.0493     9.9476 </r>
       <r>   -13.4091     4.0362    10.2277 </r>
       <r>   -13.3397     4.4218    10.5346 </r>
       <r>   -13.2703     4.0787    10.8176 </r>
       <r>   -13.2009     4.8940    11.1572 </r>
       <r>   -13.1315     7.1789    11.6553 </r>
       <r>   -13.0621     8.7947    12.2656 </r>
       <r>   -12.9927     6.8137    12.7384 </r>
       <r>   -12.9233     5.0612    13.0896 </r>
       <r>   -12.8540     4.9318    13.4318 </r>
       <r>   -12.7846     4.8268    13.7668 </r>
       <r>   -12.7152     5.2315    14.1298 </r>
       <r>   -12.6458     5.0215    14.4782 </r>
       <r>   -12.5764     3.7037    14.7353 </r>
       <r>   -12.5070     2.4794    14.9073 </r>
       <r>   -12.4376     2.9128    15.1094 </r>
       <r>   -12.3682     2.4657    15.2805 </r>
       <r>   -12.2988     2.3273    15.4420 </r>
       <r>   -12.2294     7.2002    15.9416 </r>
       <r>   -12.1600     7.0176    16.4286 </r>
       <r>   -12.0907     2.8152    16.6240 </r>
       <r>   -12.0213     4.1688    16.9132 </r>
       <r>   -11.9519     8.5239    17.5047 </r>
       <r>   -11.8825     9.6036    18.1711 </r>
       <r>   -11.8131     6.5823    18.6279 </r>
       <r>   -11.7437     2.3341    18.7899 </r>
       <r>   -11.6743     1.5175    18.8952 </r>
       <r>   -11.6049     3.0199    19.1047 </r>
       <r>   -11.5355     1.9627    19.2409 </r>
       <r>   -11.4661     0.8658    19.3010 </r>
       <r>   -11.3967     1.2023    19.3844 </r>
       <r>   -11.3273     2.2794    19.5426 </r>
       <r>   -11.2580     1.6873    19.6597 </r>
       <r>   -11.1886     0.1630    19.6710 </r>
       <r>   -11.1192     0.0252    19.6727 </r>
       <r>   -11.0498     0.6030    19.7146 </r>
       <r>   -10.9804     1.3562    19.8087 </r>
       <r>   -10.9110     3.1765    20.0291 </r>
       <r>   -10.8416     3.6328    20.2812 </r>
       <r>   -10.7722     6.3635    20.7228 </r>
       <r>   -10.7028     9.5706    21.3869 </r>
       <r>   -10.6334     4.5981    21.7059 </r>
       <r>   -10.5640     1.4757    21.8083 </r>
       <r>   -10.4947     1.1165    21.8858 </r>
       <r>   -10.4253     0.1305    21.8949 </r>
       <r>   -10.3559    -0.1251    21.8862 </r>
       <r>   -10.2865     0.1365    21.8957 </r>
       <r>   -10.2171     0.6716    21.9423 </r>
       <r>   -10.1477     0.6402    21.9867 </r>
       <r>   -10.0783     1.8763    22.1169 </r>
       <r>   -10.0089     3.3951    22.3525 </r>
       <r>    -9.9395     1.2702    22.4406 </r>
       <r>    -9.8701     1.0238    22.5117 </r>
       <r>    -9.8007     3.6594    22.7656 </r>
       <r>    -9.7313     3.1206    22.9821 </r>
       <r>    -9.6620     4.3466    23.2837 </r>
       <r>    -9.5926     7.3065    23.7907 </r>
       <r>    -9.5232     4.5675    24.1077 </r>
       <r>    -9.4538     2.6550    24.2919 </r>
       <r>    -9.3844     3.6348    24.5441 </r>
       <r>    -9.3150     5.1032    24.8983 </r>
       <r>    -9.2456     6.1118    25.3224 </r>
       <r>    -9.1762     3.0646    25.5350 </r>
       <r>    -9.1068     1.9848    25.6728 </r>
       <r>    -9.0374     5.7108    26.0690 </r>
       <r>    -8.9680     6.5068    26.5205 </r>
       <r>    -8.8987     4.2176    26.8132 </r>
       <r>    -8.8293     3.0597    27.0255 </r>
       <r>    -8.7599     4.0763    27.3084 </r>
       <r>    -8.6905     2.3883    27.4741 </r>
       <r>    -8.6211     2.2293    27.6288 </r>
       <r>    -8.5517    10.5375    28.3600 </r>
       <r>    -8.4823    14.8915    29.3934 </r>
       <r>    -8.4129     9.1158    30.0259 </r>
       <r>    -8.3435     5.6051    30.4149 </r>
       <r>    -8.2741     3.4720    30.6558 </r>
       <r>    -8.2047     1.4135    30.7539 </r>
       <r>    -8.1353     3.1157    30.9701 </r>
       <r>    -8.0660     8.5607    31.5641 </r>
       <r>    -7.9966    12.5389    32.4342 </r>
       <r>    -7.9272    11.2240    33.2131 </r>
       <r>    -7.8578     5.8911    33.6218 </r>
       <r>    -7.7884     2.7163    33.8103 </r>
       <r>    -7.7190     6.6992    34.2752 </r>
       <r>    -7.6496     6.9089    34.7546 </r>
       <r>    -7.5802     2.6828    34.9408 </r>
       <r>    -7.5108     3.8077    35.2050 </r>
       <r>    -7.4414     8.7164    35.8098 </r>
       <r>    -7.3720     7.1283    36.3045 </r>
       <r>    -7.3027     1.6831    36.4213 </r>
       <r>    -7.2333     3.2158    36.6444 </r>
       <r>    -7.1639    10.4398    37.3689 </r>
       <r>    -7.0945    10.2901    38.0829 </r>
       <r>    -7.0251     6.7691    38.5526 </r>
       <r>    -6.9557     4.9300    38.8947 </r>
       <r>    -6.8863     4.2870    39.1922 </r>
       <r>    -6.8169     5.9210    39.6031 </r>
       <r>    -6.7475     4.6012    39.9224 </r>
       <r>    -6.6781     2.4030    40.0891 </r>
       <r>    -6.6087     3.4295    40.3271 </r>
       <r>    -6.5393     3.6935    40.5834 </r>
       <r>    -6.4700     4.5299    40.8977 </r>
       <r>    -6.4006     8.3116    41.4745 </r>
       <r>    -6.3312     7.6387    42.0045 </r>
       <r>    -6.2618     4.7399    42.3334 </r>
       <r>    -6.1924     4.9370    42.6760 </r>
       <r>    -6.1230     4.1870    42.9666 </r>
       <r>    -6.0536     1.9118    43.0992 </r>
       <r>    -5.9842     2.3836    43.2646 </r>
       <r>    -5.9148     6.0745    43.6861 </r>
       <r>    -5.8454     6.3982    44.1301 </r>
       <r>    -5.7760     4.9781    44.4756 </r>
       <r>    -5.7067     5.2369    44.8390 </r>
       <r>    -5.6373     7.0532    45.3284 </r>
       <r>    -5.5679     8.3727    45.9094 </r>
       <r>    -5.4985     8.9029    46.5272 </r>
       <r>    -5.4291     8.2267    47.0980 </r>
       <r>    -5.3597     7.0482    47.5871 </r>
       <r>    -5.2903     6.6333    48.0474 </r>
       <r>    -5.2209     7.2035    48.5473 </r>
       <r>    -5.1515     7.9630    49.0998 </r>
       <r>    -5.0821     6.1415    49.5260 </r>
       <r>    -5.0127     8.3577    50.1059 </r>
       <r>    -4.9433     7.3920    50.6189 </r>
       <r>    -4.8740     6.2195    51.0505 </r>
       <r>    -4.8046     7.7597    51.5889 </r>
       <r>    -4.7352     6.8544    52.0646 </r>
       <r>    -4.6658     7.8061    52.6062 </r>
       <r>    -4.5964     6.3143    53.0444 </r>
       <r>    -4.5270     2.5352    53.2203 </r>
       <r>    -4.4576     3.4916    53.4626 </r>
       <r>    -4.3882     5.9294    53.8740 </r>
       <r>    -4.3188     5.2529    54.2385 </r>
       <r>    -4.2494     4.2886    54.5361 </r>
       <r>    -4.1800     4.6323    54.8576 </r>
       <r>    -4.1107     5.5565    55.2432 </r>
       <r>    -4.0413     3.1070    55.4588 </r>
       <r>    -3.9719     2.4522    55.6289 </r>
       <r>    -3.9025     7.4911    56.1487 </r>
       <r>    -3.8331    10.1935    56.8561 </r>
       <r>    -3.7637     6.6894    57.3203 </r>
       <r>    -3.6943     6.9399    57.8018 </r>
       <r>    -3.6249     7.1802    58.3001 </r>
       <r>    -3.5555     3.2098    58.5228 </r>
       <r>    -3.4861     0.6334    58.5668 </r>
       <r>    -3.4167     3.4402    58.8055 </r>
       <r>    -3.3473     7.8192    59.3481 </r>
       <r>    -3.2780     7.6465    59.8787 </r>
       <r>    -3.2086     5.6418    60.2701 </r>
       <r>    -3.1392     3.3899    60.5054 </r>
       <r>    -3.0698     3.5927    60.7547 </r>
       <r>    -3.0004     4.3678    61.0578 </r>
       <r>    -2.9310     3.7577    61.3185 </r>
       <r>    -2.8616     2.6743    61.5041 </r>
       <r>    -2.7922     2.6360    61.6870 </r>
       <r>    -2.7228     4.2946    61.9850 </r>
       <r>    -2.6534     5.1770    62.3442 </r>
       <r>    -2.5840     4.3697    62.6475 </r>
       <r>    -2.5147     3.7254    62.9060 </r>
       <r>    -2.4453     2.6651    63.0909 </r>
       <r>    -2.3759     3.6200    63.3421 </r>
       <r>    -2.3065     6.7802    63.8126 </r>
       <r>    -2.2371     4.6338    64.1341 </r>
       <r>    -2.1677     1.6341    64.2475 </r>
       <r>    -2.0983     2.6371    64.4305 </r>
       <r>    -2.0289     3.2638    64.6570 </r>
       <r>    -1.9595     3.1423    64.8750 </r>
       <r>    -1.8901     4.0347    65.1550 </r>
       <r>    -1.8207     4.4965    65.4670 </r>
       <r>    -1.7513     3.8419    65.7336 </r>
       <r>    -1.6820     0.9146    65.7971 </r>
       <r>    -1.6126    -0.2059    65.7828 </r>
       <r>    -1.5432    -0.0678    65.7781 </r>
       <r>    -1.4738    -0.0100    65.7774 </r>
       <r>    -1.4044    -0.0692    65.7726 </r>
       <r>    -1.3350    -0.2049    65.7584 </r>
       <r>    -1.2656     0.8099    65.8146 </r>
       <r>    -1.1962     4.3913    66.1193 </r>
       <r>    -1.1268     5.8660    66.5263 </r>
       <r>    -1.0574     2.6245    66.7085 </r>
       <r>    -0.9880     0.9502    66.7744 </r>
       <r>    -0.9187     1.5066    66.8789 </r>
       <r>    -0.8493     1.3565    66.9731 </r>
       <r>    -0.7799     2.6021    67.1536 </r>
       <r>    -0.7105     6.4044    67.5980 </r>
       <r>    -0.6411     5.1997    67.9589 </r>
       <r>    -0.5717     1.0397    68.0310 </r>
       <r>    -0.5023     1.0297    68.1025 </r>
       <r>    -0.4329     4.4118    68.4086 </r>
       <r>    -0.3635     5.6005    68.7972 </r>
       <r>    -0.2941     2.4277    68.9657 </r>
       <r>    -0.2247     1.1741    69.0471 </r>
       <r>    -0.1553     4.3720    69.3505 </r>
       <r>    -0.0860     4.2026    69.6421 </r>
       <r>    -0.0166     0.6013    69.6839 </r>
       <r>     0.0528     0.0571    69.6878 </r>
       <r>     0.1222     0.5580    69.7266 </r>
       <r>     0.1916     2.7807    69.9195 </r>
       <r>     0.2610     7.7670    70.4585 </r>
       <r>     0.3304     7.1004    70.9512 </r>
       <r>     0.3998     2.8942    71.1520 </r>
       <r>     0.4692     0.7775    71.2060 </r>
       <r>     0.5386     2.3445    71.3687 </r>
       <r>     0.6080     6.4655    71.8173 </r>
       <r>     0.6773     5.6016    72.2060 </r>
       <r>     0.7467     4.1641    72.4950 </r>
       <r>     0.8161     6.0933    72.9178 </r>
       <r>     0.8855     5.7580    73.3173 </r>
       <r>     0.9549     3.7315    73.5763 </r>
       <r>     1.0243     7.2594    74.0800 </r>
       <r>     1.0937    11.1369    74.8528 </r>
       <r>     1.1631     7.9433    75.4040 </r>
       <r>     1.2325     6.3333    75.8435 </r>
       <r>     1.3019    11.3209    76.6291 </r>
       <r>     1.3713    12.6585    77.5074 </r>
       <r>     1.4407    11.4357    78.3010 </r>
       <r>     1.5100    10.9016    79.0575 </r>
       <r>     1.5794    11.5257    79.8572 </r>
       <r>     1.6488    12.7025    80.7387 </r>
       <r>     1.7182    11.0500    81.5055 </r>
       <r>     1.7876     6.0390    81.9245 </r>
       <r>     1.8570     1.4522    82.0253 </r>
       <r>     1.9264    -0.2218    82.0099 </r>
       <r>     1.9958    -0.1293    82.0009 </r>
       <r>     2.0652    -0.0129    82.0000 </r>
       <r>     2.1346    -0.0004    82.0000 </r>
       <r>     2.2040    -0.0000    82.0000 </r>
       <r>     2.2733    -0.0000    82.0000 </r>
       <r>     2.3427    -0.0000    82.0000 </r>
       <r>     2.4121    -0.0000    82.0000 </r>
       <r>     2.4815     0.0000    82.0000 </r>
       <r>     2.5509     0.0000    82.0000 </r>
       <r>     2.6203     0.0000    82.0000 </r>
       <r>     2.6897     0.0000    82.0000 </r>
       <r>     2.7591     0.0000    82.0000 </r>
      </set>
     </set>
    </array>
   </total>
  </dos>
 </calculation>
 <structure name="finalpos" >
  <crystal>
   <varray name="basis" >
    <v>      10.16000000       0.00000000       0.00000000 </v>
    <v>       0.00000000      11.76000000       0.00000000 </v>
    <v>       0.00000000       0.00000000      15.00000000 </v>
   </varray>
   <i name="volume">   1792.22400000 </i>
   <varray name="rec_basis" >
    <v>       0.09842520       0.00000000       0.00000000 </v>
    <v>       0.00000000       0.08503401       0.00000000 </v>
    <v>       0.00000000       0.00000000       0.06666667 </v>
   </varray>
  </crystal>
  <varray name="positions" >
   <v>       0.99777237       0.00010327      -0.00544471 </v>
   <v>       0.16267418      -0.00110359      -0.00064740 </v>
   <v>       0.33402840      -0.00176092       0.00750916 </v>
   <v>       0.08003059       0.12500000      -0.00052325 </v>
   <v>       0.25120790       0.12500000       0.00479473 </v>
   <v>       0.99777237       0.24989673      -0.00544471 </v>
   <v>       0.16267418       0.25110359      -0.00064740 </v>
   <v>       0.33402840       0.25176092       0.00750916 </v>
   <v>       0.08050827       0.37504317      -0.00355290 </v>
   <v>       0.25130679       0.37538120       0.00498790 </v>
   <v>       0.99786729       0.50049477      -0.00427212 </v>
   <v>       0.16641103       0.50056595       0.00070829 </v>
   <v>       0.33517686       0.50005992       0.00458384 </v>
   <v>       0.08055478       0.62500000      -0.00055061 </v>
   <v>       0.25251896       0.62500000       0.00259181 </v>
   <v>       0.99786729       0.74950523      -0.00427212 </v>
   <v>       0.16641103       0.74943405       0.00070829 </v>
   <v>       0.33517686       0.74994008       0.00458384 </v>
   <v>       0.08050827       0.87495683      -0.00355290 </v>
   <v>       0.25130679       0.87461880       0.00498790 </v>
   <v>       0.49942185      -0.00177312       0.00808048 </v>
   <v>       0.67068714      -0.00107298      -0.00038405 </v>
   <v>       0.83559508       0.00007935      -0.00543631 </v>
   <v>       0.58229378       0.12500000       0.00590190 </v>
   <v>       0.75340926       0.12500000      -0.00000236 </v>
   <v>       0.49942185       0.25177312       0.00808048 </v>
   <v>       0.67068714       0.25107298      -0.00038405 </v>
   <v>       0.83559508       0.24992065      -0.00543631 </v>
   <v>       0.58206726       0.37538275       0.00513704 </v>
   <v>       0.75282672       0.37503666      -0.00380618 </v>
   <v>       0.49815808       0.50005553       0.00472045 </v>
   <v>       0.66690844       0.50056326       0.00073182 </v>
   <v>       0.83544422       0.50048253      -0.00439643 </v>
   <v>       0.58085249       0.62500000       0.00288436 </v>
   <v>       0.75277553       0.62500000      -0.00039805 </v>
   <v>       0.49815808       0.74994447       0.00472045 </v>
   <v>       0.66690844       0.74943674       0.00073182 </v>
   <v>       0.83544422       0.74951747      -0.00439643 </v>
   <v>       0.58206726       0.87461725       0.00513704 </v>
   <v>       0.75282672       0.87496334      -0.00380618 </v>
   <v>       0.41603875       0.12500000       0.10159370 </v>
  </varray>
 </structure>
</modeling>
