Beta12Borophene !The name of the system 
           1
    10.160000    0.000000    0.000000
     0.000000   11.760000    0.000000
     0.000000    0.000000   15.000000
   B    Al
  40   1
Direct configuration=     1
   0.99811000  0.00000000  0.00000000
   0.16667000  0.00000000  0.00000000
   0.33522000  0.00000000  0.00000000
   0.08000000  0.12500000  0.00000000
   0.25334000  0.12500000  0.00000000
   0.99811000  0.25000000  0.00000000
   0.16667000  0.25000000  0.00000000
   0.33522000  0.25000000  0.00000000
   0.08000000  0.37500000  0.00000000
   0.25334000  0.37500000  0.00000000
   0.99811000  0.50000000  0.00000000
   0.16667000  0.50000000  0.00000000
   0.33522000  0.50000000  0.00000000
   0.08000000  0.62500000  0.00000000
   0.25334000  0.62500000  0.00000000
   0.99811000  0.75000000  0.00000000
   0.16667000  0.75000000  0.00000000
   0.33522000  0.75000000  0.00000000
   0.08000000  0.87500000  0.00000000
   0.25334000  0.87500000  0.00000000
   0.49811000  0.00000000  0.00000000
   0.66667000  0.00000000  0.00000000
   0.83522000  0.00000000  0.00000000
   0.58000000  0.12500000  0.00000000
   0.75334000  0.12500000  0.00000000
   0.49811000  0.25000000  0.00000000
   0.66667000  0.25000000  0.00000000
   0.83522000  0.25000000  0.00000000
   0.58000000  0.37500000  0.00000000
   0.75334000  0.37500000  0.00000000
   0.49811000  0.50000000  0.00000000
   0.66667000  0.50000000  0.00000000
   0.83522000  0.50000000  0.00000000
   0.58000000  0.62500000  0.00000000
   0.75334000  0.62500000  0.00000000
   0.49811000  0.75000000  0.00000000
   0.66667000  0.75000000  0.00000000
   0.83522000  0.75000000  0.00000000
   0.58000000  0.87500000  0.00000000
   0.75334000  0.87500000  0.00000000
   0.41667000  0.12500000  0.13333000
Direct configuration=     2
   0.99856658 -0.00030859 -0.00009528
   0.16502930 -0.00071627 -0.00022396
   0.33573181 -0.00009781  0.00045608
   0.08056956  0.12500000  0.00038534
   0.25329132  0.12500000  0.00041232
   0.99856658  0.25030859 -0.00009528
   0.16502930  0.25071627 -0.00022396
   0.33573181  0.25009781  0.00045608
   0.08092765  0.37427690 -0.00017332
   0.25269500  0.37498102  0.00024115
   0.99836899  0.50044502 -0.00003581
   0.16653691  0.50015132  0.00002823
   0.33507939  0.50020726 -0.00003891
   0.08020456  0.62500000  0.00011144
   0.25299613  0.62500000 -0.00000558
   0.99836899  0.74955498 -0.00003581
   0.16653691  0.74984868  0.00002823
   0.33507939  0.74979274 -0.00003891
   0.08092765  0.87572310 -0.00017332
   0.25269500  0.87501898  0.00024115
   0.49763523 -0.00009850  0.00045588
   0.66824894 -0.00071628 -0.00022398
   0.83480068 -0.00030854 -0.00009538
   0.58005515  0.12500000  0.00041310
   0.75277775  0.12500000  0.00038532
   0.49763523  0.25009850  0.00045588
   0.66824894  0.25071628 -0.00022398
   0.83480068  0.25030854 -0.00009538
   0.58065226  0.37498065  0.00024127
   0.75241968  0.37427705 -0.00017334
   0.49828790  0.50020739 -0.00003887
   0.66674142  0.50015139  0.00002821
   0.83499832  0.50044495 -0.00003582
   0.58035115  0.62500000 -0.00000557
   0.75314268  0.62500000  0.00011139
   0.49828790  0.74979261 -0.00003887
   0.66674142  0.74984861  0.00002821
   0.83499832  0.74955505 -0.00003582
   0.58065226  0.87501935  0.00024127
   0.75241968  0.87572295 -0.00017334
   0.41656156  0.12500000  0.13088996
Direct configuration=     3
   0.99856837 -0.00030980 -0.00009565
   0.16502289 -0.00071908 -0.00022484
   0.33573381 -0.00009819  0.00045787
   0.08057178  0.12500000  0.00038685
   0.25329113  0.12500000  0.00041393
   0.99856837  0.25030980 -0.00009565
   0.16502289  0.25071908 -0.00022484
   0.33573381  0.25009819  0.00045787
   0.08093128  0.37427407 -0.00017400
   0.25269247  0.37498095  0.00024209
   0.99837001  0.50044677 -0.00003595
   0.16653639  0.50015192  0.00002834
   0.33507884  0.50020807 -0.00003906
   0.08020536  0.62500000  0.00011187
   0.25299478  0.62500000 -0.00000560
   0.99837001  0.74955323 -0.00003595
   0.16653639  0.74984808  0.00002834
   0.33507884  0.74979193 -0.00003906
   0.08093128  0.87572593 -0.00017400
   0.25269247  0.87501905  0.00024209
   0.49763338 -0.00009888  0.00045766
   0.66825512 -0.00071908 -0.00022486
   0.83479904 -0.00030975 -0.00009576
   0.58005536  0.12500000  0.00041472
   0.75277555  0.12500000  0.00038683
   0.49763338  0.25009888  0.00045766
   0.66825512  0.25071908 -0.00022486
   0.83479904  0.25030975 -0.00009576
   0.58065481  0.37498058  0.00024221
   0.75241608  0.37427423 -0.00017402
   0.49828859  0.50020821 -0.00003903
   0.66674170  0.50015198  0.00002832
   0.83499745  0.50044669 -0.00003596
   0.58035252  0.62500000 -0.00000559
   0.75314190  0.62500000  0.00011183
   0.49828859  0.74979179 -0.00003903
   0.66674170  0.74984802  0.00002832
   0.83499745  0.74955331 -0.00003596
   0.58065481  0.87501942  0.00024221
   0.75241608  0.87572577 -0.00017402
   0.41656114  0.12500000  0.13088041
Direct configuration=     4
   0.99813545 -0.00034958 -0.00018254
   0.16457396 -0.00078534 -0.00039304
   0.33555644 -0.00023114  0.00088062
   0.08090897  0.12500000  0.00069321
   0.25312032  0.12500000  0.00082045
   0.99813545  0.25034958 -0.00018254
   0.16457396  0.25078534 -0.00039304
   0.33555644  0.25023114  0.00088062
   0.08129498  0.37445514 -0.00032732
   0.25243530  0.37499944  0.00044890
   0.99826061  0.50050511 -0.00007373
   0.16652507  0.50020500  0.00005182
   0.33508643  0.50030004 -0.00006784
   0.08043713  0.62500000  0.00021833
   0.25272154  0.62500000 -0.00001624
   0.99826061  0.74949489 -0.00007373
   0.16652507  0.74979500  0.00005182
   0.33508643  0.74969996 -0.00006784
   0.08129498  0.87554486 -0.00032732
   0.25243530  0.87500056  0.00044890
   0.49781082 -0.00023109  0.00087407
   0.66871379 -0.00078792 -0.00039266
   0.83524338 -0.00034972 -0.00018265
   0.58024572  0.12500000  0.00082077
   0.75243690  0.12500000  0.00069162
   0.49781082  0.25023109  0.00087407
   0.66871379  0.25078792 -0.00039266
   0.83524338  0.25034972 -0.00018265
   0.58090492  0.37499811  0.00044947
   0.75204734  0.37444874 -0.00032621
   0.49828826  0.50029582 -0.00006713
   0.66674073  0.50020506  0.00005105
   0.83511949  0.50050848 -0.00007451
   0.58062537  0.62500000 -0.00001627
   0.75291010  0.62500000  0.00021672
   0.49828826  0.74970418 -0.00006713
   0.66674073  0.74979494  0.00005105
   0.83511949  0.74949152 -0.00007451
   0.58090492  0.87500189  0.00044947
   0.75204734  0.87555126 -0.00032621
   0.41651001  0.12500000  0.12856477
Direct configuration=     5
   0.99683671 -0.00046894 -0.00044322
   0.16322717 -0.00098414 -0.00089765
   0.33502434 -0.00063001  0.00214889
   0.08192055  0.12500000  0.00161227
   0.25260789  0.12500000  0.00204002
   0.99683671  0.25046894 -0.00044322
   0.16322717  0.25098414 -0.00089765
   0.33502434  0.25063001  0.00214889
   0.08238607  0.37499836 -0.00078727
   0.25166378  0.37505491  0.00106932
   0.99793243  0.50068015 -0.00018706
   0.16649111  0.50036423  0.00012226
   0.33510921  0.50057596 -0.00015418
   0.08113242  0.62500000  0.00053771
   0.25190180  0.62500000 -0.00004816
   0.99793243  0.74931985 -0.00018706
   0.16649111  0.74963577  0.00012226
   0.33510921  0.74942404 -0.00015418
   0.08238607  0.87500164 -0.00078727
   0.25166378  0.87494509  0.00106932
   0.49834316 -0.00062771  0.00212331
   0.67008981 -0.00099444 -0.00089605
   0.83657638 -0.00046963 -0.00044331
   0.58081677  0.12500000  0.00203893
   0.75142094  0.12500000  0.00160602
   0.49834316  0.25062771  0.00212331
   0.67008981  0.25099444 -0.00089605
   0.83657638  0.25046963 -0.00044331
   0.58165526  0.37505071  0.00107126
   0.75094111  0.37497228 -0.00078279
   0.49828725  0.50055866 -0.00015144
   0.66673781  0.50036429  0.00011925
   0.83548558  0.50069384 -0.00019017
   0.58144391  0.62500000 -0.00004828
   0.75221468  0.62500000  0.00053138
   0.49828725  0.74944134 -0.00015144
   0.66673781  0.74963571  0.00011925
   0.83548558  0.74930616 -0.00019017
   0.58165526  0.87494929  0.00107126
   0.75094111  0.87502772 -0.00078279
   0.41635662  0.12500000  0.12161785
Direct configuration=     6
   0.99423922 -0.00070765 -0.00096457
   0.16053361 -0.00138174 -0.00190686
   0.33396012 -0.00142773  0.00468543
   0.08394369  0.12500000  0.00345039
   0.25158304  0.12500000  0.00447915
   0.99423922  0.25070765 -0.00096457
   0.16053361  0.25138174 -0.00190686
   0.33396012  0.25142773  0.00468543
   0.08456825  0.37608480 -0.00170718
   0.25012075  0.37516585  0.00231015
   0.99727607  0.50103023 -0.00041373
   0.16642319  0.50068271  0.00026313
   0.33515476  0.50112780 -0.00032687
   0.08252301  0.62500000  0.00117646
   0.25026233  0.62500000 -0.00011200
   0.99727607  0.74896977 -0.00041373
   0.16642319  0.74931729  0.00026313
   0.33515476  0.74887220 -0.00032687
   0.08456825  0.87391520 -0.00170718
   0.25012075  0.87483415  0.00231015
   0.49940784 -0.00142096  0.00462179
   0.67284185 -0.00140749 -0.00190284
   0.83924240 -0.00070944 -0.00096465
   0.58195889  0.12500000  0.00447526
   0.74938904  0.12500000  0.00343480
   0.49940784  0.25142096  0.00462179
   0.67284185  0.25140749 -0.00190284
   0.83924240  0.25070944 -0.00096465
   0.58315594  0.37515590  0.00231482
   0.74872866  0.37601937 -0.00169594
   0.49828524  0.50108433 -0.00032006
   0.66673197  0.50068275  0.00025564
   0.83621778  0.50106457 -0.00042149
   0.58308100  0.62500000 -0.00011232
   0.75082385  0.62500000  0.00116070
   0.49828524  0.74891567 -0.00032006
   0.66673197  0.74931725  0.00025564
   0.83621778  0.74893543 -0.00042149
   0.58315594  0.87484410  0.00231482
   0.74872866  0.87398063 -0.00169594
   0.41604986  0.12500000  0.10772401
Direct configuration=     7
   0.99632550 -0.00051592 -0.00054583
   0.16269706 -0.00106239 -0.00109627
   0.33481489 -0.00078700  0.00264810
   0.08231872  0.12500000  0.00197403
   0.25240619  0.12500000  0.00252006
   0.99632550  0.25051592 -0.00054583
   0.16269706  0.25106239 -0.00109627
   0.33481489  0.25078700  0.00264810
   0.08281554  0.37521218 -0.00096832
   0.25136010  0.37507674  0.00131352
   0.99780325  0.50074905 -0.00023167
   0.16647774  0.50042691  0.00014998
   0.33511817  0.50068457 -0.00018817
   0.08140610  0.62500000  0.00066342
   0.25157914  0.62500000 -0.00006073
   0.99780325  0.74925095 -0.00023167
   0.16647774  0.74957309  0.00014998
   0.33511817  0.74931543 -0.00018817
   0.08281554  0.87478782 -0.00096832
   0.25136010  0.87492326  0.00131352
   0.49855270 -0.00078383  0.00261503
   0.67063143 -0.00107573 -0.00109420
   0.83710108 -0.00051682 -0.00054592
   0.58104155  0.12500000  0.00251842
   0.75102105  0.12500000  0.00196594
   0.49855270  0.25078383  0.00261503
   0.67063143  0.25107573 -0.00109420
   0.83710108  0.25051682 -0.00054592
   0.58195061  0.37507141  0.00131600
   0.75050568  0.37517836 -0.00096250
   0.49828686  0.50066211 -0.00018462
   0.66673666  0.50042696  0.00014609
   0.83562969  0.50076680 -0.00023570
   0.58176611  0.62500000 -0.00006089
   0.75194095  0.62500000  0.00065523
   0.49828686  0.74933789 -0.00018462
   0.66673666  0.74957304  0.00014609
   0.83562969  0.74923320 -0.00023570
   0.58195061  0.87492859  0.00131600
   0.75050568  0.87482164 -0.00096250
   0.41629625  0.12500000  0.11888342
Direct configuration=     8
   0.99640752 -0.00051758 -0.00060943
   0.16257636 -0.00103793 -0.00117905
   0.33477458 -0.00087430  0.00294821
   0.08229030  0.12500000  0.00215332
   0.25222183  0.12500000  0.00280423
   0.99640752  0.25051758 -0.00060943
   0.16257636  0.25103793 -0.00117905
   0.33477458  0.25087430  0.00294821
   0.08276784  0.37533531 -0.00107617
   0.25129291  0.37511253  0.00144882
   0.99774998  0.50074220 -0.00026272
   0.16649222  0.50046860  0.00016454
   0.33520162  0.50070597 -0.00019994
   0.08145918  0.62500000  0.00074466
   0.25148826  0.62500000 -0.00007259
   0.99774998  0.74925780 -0.00026272
   0.16649222  0.74953140  0.00016454
   0.33520162  0.74929403 -0.00019994
   0.08276784  0.87466469 -0.00107617
   0.25129291  0.87488747  0.00144882
   0.49859117 -0.00086896  0.00291292
   0.67075983 -0.00104474 -0.00117594
   0.83701868 -0.00051809 -0.00060780
   0.58122821  0.12500000  0.00280162
   0.75105812  0.12500000  0.00214388
   0.49859117  0.25086896  0.00291292
   0.67075983  0.25104474 -0.00117594
   0.83701868  0.25051809 -0.00060780
   0.58201706  0.37510622  0.00145114
   0.75055511  0.37530693 -0.00106773
   0.49820008  0.50068502 -0.00019576
   0.66673118  0.50046829  0.00016013
   0.83567870  0.50075845 -0.00026827
   0.58185412  0.62500000 -0.00007292
   0.75188614  0.62500000  0.00073472
   0.49820008  0.74931498 -0.00019576
   0.66673118  0.74953171  0.00016013
   0.83567870  0.74924155 -0.00026827
   0.58201706  0.87489378  0.00145114
   0.75055511  0.87469307 -0.00106773
   0.41627420  0.12500000  0.11720719
Direct configuration=     9
   0.99665359 -0.00052255 -0.00080025
   0.16221426 -0.00096457 -0.00142739
   0.33465365 -0.00113617  0.00384851
   0.08220504  0.12500000  0.00269119
   0.25166874  0.12500000  0.00365675
   0.99665359  0.25052255 -0.00080025
   0.16221426  0.25096457 -0.00142739
   0.33465365  0.25113617  0.00384851
   0.08262474  0.37570470 -0.00139972
   0.25109132  0.37521991  0.00185470
   0.99759016  0.50072165 -0.00035588
   0.16653564  0.50059367  0.00020820
   0.33545196  0.50077019 -0.00023524
   0.08161840  0.62500000  0.00098837
   0.25121562  0.62500000 -0.00010818
   0.99759016  0.74927835 -0.00035588
   0.16653564  0.74940633  0.00020820
   0.33545196  0.74922981 -0.00023524
   0.08262474  0.87429530 -0.00139972
   0.25109132  0.87478009  0.00185470
   0.49870657 -0.00112435  0.00380658
   0.67114500 -0.00095178 -0.00142117
   0.83677147 -0.00052188 -0.00079346
   0.58178819  0.12500000  0.00365122
   0.75116933  0.12500000  0.00267770
   0.49870657  0.25112435  0.00380658
   0.67114500  0.25095178 -0.00142117
   0.83677147  0.25052188 -0.00079346
   0.58221642  0.37521066  0.00185655
   0.75070339  0.37569265 -0.00138340
   0.49793975  0.50075373 -0.00022915
   0.66671471  0.50059226  0.00020226
   0.83582575  0.50073338 -0.00036601
   0.58211815  0.62500000 -0.00010901
   0.75172171  0.62500000  0.00097320
   0.49793975  0.74924627 -0.00022915
   0.66671471  0.74940774  0.00020226
   0.83582575  0.74926662 -0.00036601
   0.58221642  0.87478934  0.00185655
   0.75070339  0.87430735 -0.00138340
   0.41620803  0.12500000  0.11217849
Direct configuration=    10
   0.99714573 -0.00053248 -0.00118188
   0.16149007 -0.00081783 -0.00192407
   0.33441178 -0.00165991  0.00564912
   0.08203453  0.12500000  0.00376693
   0.25056257  0.12500000  0.00536179
   0.99714573  0.25053248 -0.00118188
   0.16149007  0.25081783 -0.00192407
   0.33441178  0.25165991  0.00564912
   0.08233854  0.37644349 -0.00204682
   0.25068816  0.37543466  0.00266647
   0.99727053  0.50068054 -0.00054219
   0.16662248  0.50084381  0.00029554
   0.33595265  0.50089861 -0.00030586
   0.08193684  0.62500000  0.00147578
   0.25067034  0.62500000 -0.00017936
   0.99727053  0.74931946 -0.00054219
   0.16662248  0.74915619  0.00029554
   0.33595265  0.74910139 -0.00030586
   0.08233854  0.87355651 -0.00204682
   0.25068816  0.87456534  0.00266647
   0.49893737 -0.00163512  0.00559389
   0.67191534 -0.00076584 -0.00191162
   0.83627706 -0.00052946 -0.00116478
   0.58290815  0.12500000  0.00535041
   0.75139176  0.12500000  0.00374535
   0.49893737  0.25163512  0.00559389
   0.67191534  0.25076584 -0.00191162
   0.83627706  0.25052946 -0.00116478
   0.58261513  0.37541954  0.00266738
   0.75099995  0.37646409 -0.00201474
   0.49741909  0.50089115 -0.00029595
   0.66668179  0.50084022  0.00028650
   0.83611986  0.50068325 -0.00056147
   0.58264622  0.62500000 -0.00018120
   0.75139285  0.62500000  0.00145014
   0.49741909  0.74910885 -0.00029595
   0.66668179  0.74915978  0.00028650
   0.83611986  0.74931675 -0.00056147
   0.58261513  0.87458046  0.00266738
   0.75099995  0.87353591 -0.00201474
   0.41607570  0.12500000  0.10212110
Direct configuration=    11
   0.99762868 -0.00047687 -0.00131399
   0.16171193 -0.00098565 -0.00192118
   0.33408937 -0.00186704  0.00611118
   0.08109953  0.12500000  0.00394141
   0.25053623  0.12500000  0.00578005
   0.99762868  0.25047687 -0.00131399
   0.16171193  0.25098565 -0.00192118
   0.33408937  0.25186704  0.00611118
   0.08161277  0.37611986 -0.00222768
   0.25104378  0.37556360  0.00288305
   0.99758989  0.50074993 -0.00062386
   0.16670931  0.50087927  0.00031067
   0.33560219  0.50080742 -0.00028702
   0.08137164  0.62500000  0.00164089
   0.25124949  0.62500000 -0.00021386
   0.99758989  0.74925007 -0.00062386
   0.16670931  0.74912073  0.00031067
   0.33560219  0.74919258 -0.00028702
   0.08161277  0.87388014 -0.00222768
   0.25104378  0.87443640  0.00288305
   0.49927152 -0.00182233  0.00606270
   0.67169376 -0.00093209 -0.00190340
   0.83577568 -0.00047356 -0.00129419
   0.58286212  0.12500000  0.00578210
   0.75236121  0.12500000  0.00391912
   0.49927152  0.25182233  0.00606270
   0.67169376  0.25093209 -0.00190340
   0.83577568  0.25047356 -0.00129419
   0.58228047  0.37553634  0.00287984
   0.75173209  0.37613708 -0.00219065
   0.49775310  0.50080740 -0.00027517
   0.66661939  0.50087370  0.00030111
   0.83577524  0.50074909 -0.00064399
   0.58207456  0.62500000 -0.00021613
   0.75196174  0.62500000  0.00160965
   0.49775310  0.74919260 -0.00027517
   0.66661939  0.74912630  0.00030111
   0.83577524  0.74925091 -0.00064399
   0.58228047  0.87446366  0.00287984
   0.75173209  0.87386292 -0.00219065
   0.41609513  0.12500000  0.09935190
Direct configuration=    12
   0.99812577 -0.00041964 -0.00144996
   0.16194029 -0.00115839 -0.00191820
   0.33375754 -0.00208022  0.00658675
   0.08013716  0.12500000  0.00412099
   0.25050913  0.12500000  0.00621055
   0.99812577  0.25041964 -0.00144996
   0.16194029  0.25115839 -0.00191820
   0.33375754  0.25208022  0.00658675
   0.08086575  0.37578676 -0.00241383
   0.25140980  0.37569631  0.00310597
   0.99791860  0.50082134 -0.00070792
   0.16679867  0.50091577  0.00032625
   0.33524148  0.50071356 -0.00026763
   0.08078990  0.62500000  0.00181082
   0.25184559  0.62500000 -0.00024937
   0.99791860  0.74917866 -0.00070792
   0.16679867  0.74908423  0.00032625
   0.33524148  0.74928644 -0.00026763
   0.08086575  0.87421324 -0.00241383
   0.25140980  0.87430369  0.00310597
   0.49961545 -0.00201503  0.00654524
   0.67146570 -0.00110320 -0.00189494
   0.83525964 -0.00041602 -0.00142739
   0.58281475  0.12500000  0.00622643
   0.75335903  0.12500000  0.00409798
   0.49961545  0.25201503  0.00654524
   0.67146570  0.25110320 -0.00189494
   0.83525964  0.25041602 -0.00142739
   0.58193601  0.37565656  0.00309853
   0.75248566  0.37580051 -0.00237171
   0.49809688  0.50072119 -0.00025378
   0.66655516  0.50090816  0.00031613
   0.83542054  0.50081686 -0.00072893
   0.58148616  0.62500000 -0.00025207
   0.75254728  0.62500000  0.00177383
   0.49809688  0.74927881 -0.00025378
   0.66655516  0.74909184  0.00031613
   0.83542054  0.74918314 -0.00072893
   0.58193601  0.87434344  0.00309853
   0.75248566  0.87419949 -0.00237171
   0.41611511  0.12500000  0.09650166
Direct configuration=    13
   0.99803940 -0.00042958 -0.00142633
   0.16190061 -0.00112837 -0.00191871
   0.33381519 -0.00204318  0.00650413
   0.08030436  0.12500000  0.00408979
   0.25051384  0.12500000  0.00613576
   0.99803940  0.25042958 -0.00142633
   0.16190061  0.25112837 -0.00191871
   0.33381519  0.25204318  0.00650413
   0.08099554  0.37584463 -0.00238149
   0.25134621  0.37567325  0.00306724
   0.99786148  0.50080893 -0.00069332
   0.16678315  0.50090942  0.00032355
   0.33530416  0.50072987 -0.00027099
   0.08089097  0.62500000  0.00178130
   0.25174202  0.62500000 -0.00024320
   0.99786148  0.74919107 -0.00069332
   0.16678315  0.74909058  0.00032355
   0.33530416  0.74927013 -0.00027099
   0.08099554  0.87415537 -0.00238149
   0.25134621  0.87432675  0.00306724
   0.49955570 -0.00198155  0.00646140
   0.67150532 -0.00107347 -0.00189641
   0.83534930 -0.00042601 -0.00140425
   0.58282298  0.12500000  0.00614923
   0.75318567  0.12500000  0.00406690
   0.49955570  0.25198155  0.00646140
   0.67150532  0.25107347 -0.00189641
   0.83534930  0.25042601 -0.00140425
   0.58199586  0.37563567  0.00306053
   0.75235474  0.37585899 -0.00234025
   0.49803715  0.50073617 -0.00025750
   0.66656632  0.50090217  0.00031352
   0.83548217  0.50080509 -0.00071417
   0.58158839  0.62500000 -0.00024582
   0.75244555  0.62500000  0.00174530
   0.49803715  0.74926383 -0.00025750
   0.66656632  0.74909783  0.00031352
   0.83548217  0.74919491 -0.00071417
   0.58199586  0.87436433  0.00306053
   0.75235474  0.87414101 -0.00234025
   0.41611164  0.12500000  0.09699687
Direct configuration=    14
   0.99765831 -0.00032563 -0.00145950
   0.16212165 -0.00125676 -0.00175403
   0.33378621 -0.00213816  0.00640652
   0.08008875  0.12500000  0.00392468
   0.25047627  0.12500000  0.00603302
   0.99765831  0.25032563 -0.00145950
   0.16212165  0.25125676 -0.00175403
   0.33378621  0.25213816  0.00640652
   0.08089493  0.37563204 -0.00236004
   0.25143457  0.37564952  0.00303067
   0.99783895  0.50079035 -0.00072847
   0.16670358  0.50084958  0.00031458
   0.33528962  0.50061636 -0.00022984
   0.08075452  0.62500000  0.00178461
   0.25202804  0.62500000 -0.00023731
   0.99783895  0.74920965 -0.00072847
   0.16670358  0.74915042  0.00031458
   0.33528962  0.74938364 -0.00022984
   0.08089493  0.87436796 -0.00236004
   0.25143457  0.87435048  0.00303067
   0.49957768 -0.00207750  0.00637733
   0.67126057 -0.00120281 -0.00172751
   0.83574152 -0.00032434 -0.00143719
   0.58282999  0.12500000  0.00606134
   0.75336989  0.12500000  0.00390242
   0.49957768  0.25207750  0.00637733
   0.67126057  0.25120281 -0.00172751
   0.83574152  0.25032434 -0.00143719
   0.58191687  0.37561843  0.00302306
   0.75245115  0.37563267 -0.00232310
   0.49806086  0.50061760 -0.00021482
   0.66662881  0.50084313  0.00030527
   0.83551611  0.50078261 -0.00074682
   0.58129716  0.62500000 -0.00024473
   0.75259109  0.62500000  0.00175324
   0.49806086  0.74938240 -0.00021482
   0.66662881  0.74915687  0.00030527
   0.83551611  0.74921739 -0.00074682
   0.58191687  0.87438157  0.00302306
   0.75245115  0.87436733 -0.00232310
   0.41619148  0.12500000  0.09740053
Direct configuration=    15
   0.99724534 -0.00021299 -0.00149543
   0.16236118 -0.00139589 -0.00157558
   0.33375480 -0.00224108  0.00630075
   0.07985511  0.12500000  0.00374576
   0.25043557  0.12500000  0.00592170
   0.99724534  0.25021299 -0.00149543
   0.16236118  0.25139589 -0.00157558
   0.33375480  0.25224108  0.00630075
   0.08078591  0.37540166 -0.00233681
   0.25153032  0.37562382  0.00299105
   0.99781453  0.50077022 -0.00076656
   0.16661737  0.50078474  0.00030485
   0.33527387  0.50049336 -0.00018525
   0.08060665  0.62500000  0.00178820
   0.25233798  0.62500000 -0.00023093
   0.99781453  0.74922978 -0.00076656
   0.16661737  0.74921526  0.00030485
   0.33527387  0.74950664 -0.00018525
   0.08078591  0.87459834 -0.00233681
   0.25153032  0.87437618  0.00299105
   0.49960149 -0.00218147  0.00628624
   0.67099535 -0.00134296 -0.00154449
   0.83616654 -0.00021415 -0.00147290
   0.58283759  0.12500000  0.00596611
   0.75356951  0.12500000  0.00372419
   0.49960149  0.25218147  0.00628624
   0.67099535  0.25134296 -0.00154449
   0.83616654  0.25021415 -0.00147290
   0.58183128  0.37559975  0.00298245
   0.75255563  0.37538742 -0.00230452
   0.49808656  0.50048912 -0.00016858
   0.66669653  0.50077915  0.00029633
   0.83555290  0.50075825 -0.00078220
   0.58098159  0.62500000 -0.00024354
   0.75274879  0.62500000  0.00176184
   0.49808656  0.74951088 -0.00016858
   0.66669653  0.74922085  0.00029633
   0.83555290  0.74924175 -0.00078220
   0.58183128  0.87440025  0.00298245
   0.75255563  0.87461258 -0.00230452
   0.41627799  0.12500000  0.09783794
Direct configuration=    16
   0.99748811 -0.00007746 -0.00156227
   0.16240583 -0.00139629 -0.00131704
   0.33384700 -0.00222975  0.00619887
   0.07959800  0.12500000  0.00348645
   0.25040074  0.12500000  0.00578201
   0.99748811  0.25007746 -0.00156227
   0.16240583  0.25139629 -0.00131704
   0.33384700  0.25222975  0.00619887
   0.08056519  0.37523335 -0.00231188
   0.25155783  0.37562381  0.00294864
   0.99786814  0.50067732 -0.00083181
   0.16650962  0.50073908  0.00029087
   0.33524514  0.50034091 -0.00011590
   0.08053219  0.62500000  0.00179061
   0.25259974  0.62500000 -0.00021669
   0.99786814  0.74932268 -0.00083181
   0.16650962  0.74926092  0.00029087
   0.33524514  0.74965909 -0.00011590
   0.08056519  0.87476665 -0.00231188
   0.25155783  0.87437619  0.00294864
   0.49950766 -0.00218661  0.00620042
   0.67093024 -0.00135320 -0.00128063
   0.83590194 -0.00007307 -0.00153896
   0.58285357  0.12500000  0.00584563
   0.75378397  0.12500000  0.00347058
   0.49950766  0.25218661  0.00620042
   0.67093024  0.25135320 -0.00128063
   0.83590194  0.25007307 -0.00153896
   0.58181242  0.37559718  0.00294049
   0.75278463  0.37520460 -0.00228863
   0.49812185  0.50033167 -0.00009739
   0.66680191  0.50073374  0.00028289
   0.83549836  0.50065883 -0.00084228
   0.58071828  0.62500000 -0.00023371
   0.75284187  0.62500000  0.00177173
   0.49812185  0.74966833 -0.00009739
   0.66680191  0.74926626  0.00028289
   0.83549836  0.74934117 -0.00084228
   0.58181242  0.87440282  0.00294049
   0.75278463  0.87479540 -0.00228863
   0.41636992  0.12500000  0.09828263
Direct configuration=    17
   0.99754397 -0.00004628 -0.00157765
   0.16241611 -0.00139638 -0.00125755
   0.33386821 -0.00222714  0.00617543
   0.07953884  0.12500000  0.00342678
   0.25039273  0.12500000  0.00574987
   0.99754397  0.25004628 -0.00157765
   0.16241611  0.25139638 -0.00125755
   0.33386821  0.25222714  0.00617543
   0.08051440  0.37519463 -0.00230614
   0.25156416  0.37562381  0.00293888
   0.99788047  0.50065595 -0.00084683
   0.16648483  0.50072858  0.00028765
   0.33523852  0.50030583 -0.00009994
   0.08051505  0.62500000  0.00179116
   0.25265997  0.62500000 -0.00021341
   0.99788047  0.74934405 -0.00084683
   0.16648483  0.74927142  0.00028765
   0.33523852  0.74969417 -0.00009994
   0.08051440  0.87480537 -0.00230614
   0.25156416  0.87437619  0.00293888
   0.49948608 -0.00218780  0.00618068
   0.67091526 -0.00135556 -0.00121992
   0.83584106 -0.00004060 -0.00155417
   0.58285725  0.12500000  0.00581791
   0.75383332  0.12500000  0.00341223
   0.49948608  0.25218780  0.00618068
   0.67091526  0.25135556 -0.00121992
   0.83584106  0.25004060 -0.00155417
   0.58180808  0.37559658  0.00293083
   0.75283733  0.37516253 -0.00228497
   0.49812997  0.50029544 -0.00008101
   0.66682615  0.50072329  0.00027980
   0.83548581  0.50063595 -0.00085611
   0.58065769  0.62500000 -0.00023145
   0.75286328  0.62500000  0.00177400
   0.49812997  0.74970456 -0.00008101
   0.66682615  0.74927671  0.00027980
   0.83548581  0.74936405 -0.00085611
   0.58180808  0.87440342  0.00293083
   0.75283733  0.87483747 -0.00228497
   0.41639107  0.12500000  0.09838495
Direct configuration=    18
   0.99765569  0.00001608 -0.00160841
   0.16243666 -0.00139656 -0.00113857
   0.33391064 -0.00222192  0.00612855
   0.07942052  0.12500000  0.00330744
   0.25037670  0.12500000  0.00568559
   0.99765569  0.24998392 -0.00160841
   0.16243666  0.25139656 -0.00113857
   0.33391064  0.25222192  0.00612855
   0.08041282  0.37511717 -0.00229467
   0.25157682  0.37562381  0.00291936
   0.99790514  0.50061319 -0.00087686
   0.16643524  0.50070757  0.00028122
   0.33522530  0.50023567 -0.00006802
   0.08048078  0.62500000  0.00179227
   0.25278043  0.62500000 -0.00020685
   0.99790514  0.74938681 -0.00087686
   0.16643524  0.74929243  0.00028122
   0.33522530  0.74976433 -0.00006802
   0.08041282  0.87488283 -0.00229467
   0.25157682  0.87437619  0.00291936
   0.49944290 -0.00219016  0.00614118
   0.67088530 -0.00136027 -0.00109849
   0.83571929  0.00002433 -0.00158457
   0.58286461  0.12500000  0.00576246
   0.75393201  0.12500000  0.00329552
   0.49944290  0.25219016  0.00614118
   0.67088530  0.25136027 -0.00109849
   0.83571929  0.24997567 -0.00158457
   0.58179940  0.37559540  0.00291152
   0.75294271  0.37507840 -0.00227766
   0.49814621  0.50022298 -0.00004826
   0.66687464  0.50070240  0.00027362
   0.83546071  0.50059020 -0.00088376
   0.58053652  0.62500000 -0.00022693
   0.75290611  0.62500000  0.00177855
   0.49814621  0.74977702 -0.00004826
   0.66687464  0.74929760  0.00027362
   0.83546071  0.74940980 -0.00088376
   0.58179940  0.87440460  0.00291152
   0.75294271  0.87492160 -0.00227766
   0.41643338  0.12500000  0.09858959
Direct configuration=    19
   0.99787912  0.00014082 -0.00166993
   0.16247775 -0.00139693 -0.00090061
   0.33399549 -0.00221149  0.00603479
   0.07918389  0.12500000  0.00306877
   0.25034465  0.12500000  0.00555703
   0.99787912  0.24985918 -0.00166993
   0.16247775  0.25139693 -0.00090061
   0.33399549  0.25221149  0.00603479
   0.08020967  0.37496226 -0.00227173
   0.25160214  0.37562380  0.00288032
   0.99795448  0.50052769 -0.00093691
   0.16633607  0.50066554  0.00026835
   0.33519886  0.50009535 -0.00000419
   0.08041225  0.62500000  0.00179449
   0.25302134  0.62500000 -0.00019374
   0.99795448  0.74947231 -0.00093691
   0.16633607  0.74933446  0.00026835
   0.33519886  0.74990465 -0.00000419
   0.08020967  0.87503774 -0.00227173
   0.25160214  0.87437620  0.00288032
   0.49935654 -0.00219490  0.00606220
   0.67082537 -0.00136969 -0.00085564
   0.83547576  0.00015418 -0.00164538
   0.58287932  0.12500000  0.00565157
   0.75412940  0.12500000  0.00306211
   0.49935654  0.25219490  0.00606220
   0.67082537  0.25136969 -0.00085564
   0.83547576  0.24984582 -0.00164538
   0.58178205  0.37559303  0.00287289
   0.75315348  0.37491013 -0.00226304
   0.49817869  0.50007807  0.00001726
   0.66697163  0.50066061  0.00026125