   5   5   0   0
  0.3584448E+03  0.1016000E-08  0.1176000E-08  0.1500000E-08  0.5000000E-15
  1.000000000000000E-004
  CAR 
 Beta12Borophene !The name of the system 
      2.27325147    -17.98817248  301     -9.22420539      1.00000000
    -17.988  0.0000E+00  0.0000E+00  0.0000E+00  0.0000E+00
    -17.921  0.0000E+00  0.0000E+00  0.0000E+00  0.0000E+00
    -17.853 -0.1169E-33  0.0000E+00 -0.7898E-35  0.0000E+00
    -17.786 -0.8100E-29  0.0000E+00 -0.5471E-30  0.0000E+00
    -17.718 -0.2237E-24 -0.9284E-31 -0.1511E-25 -0.6270E-32
    -17.650 -0.2460E-20 -0.3742E-26 -0.1662E-21 -0.2527E-27
    -17.583 -0.1075E-16 -0.6008E-22 -0.7262E-18 -0.4058E-23
    -17.515 -0.1796E-13 -0.3837E-18 -0.1214E-14 -0.2592E-19
    -17.448 -0.1214E-10 -0.9413E-15 -0.8213E-12 -0.6360E-16
    -17.380 -0.3200E-08 -0.9346E-12 -0.2170E-09 -0.6319E-13
    -17.313 -0.3235E-06 -0.3633E-09 -0.2206E-07 -0.2460E-10
    -17.245 -0.1209E-04 -0.5460E-07 -0.8387E-06 -0.3712E-08
    -17.178 -0.1510E-03 -0.3092E-05 -0.1104E-04 -0.2125E-06
    -17.110 -0.3615E-03 -0.6192E-04 -0.3545E-04 -0.4395E-05
    -17.043  0.2099E-02 -0.3459E-03  0.1063E-03 -0.2776E-04
    -16.975  0.7450E-02  0.4772E-03  0.6095E-03  0.4472E-05
    -16.908  0.5657E-02  0.5518E-02  0.9916E-03  0.3772E-03
    -16.840  0.5464E-03  0.7524E-02  0.1028E-02  0.8853E-03
    -16.772 -0.3525E-03  0.2222E-02  0.1005E-02  0.1035E-02
    -16.705 -0.6563E-04 -0.3526E-03  0.1000E-02  0.1012E-02
    -16.637 -0.3366E-05 -0.1580E-03  0.1000E-02  0.1001E-02
    -16.570 -0.6087E-07 -0.1302E-04  0.1000E-02  0.1000E-02
    -16.502 -0.4145E-09 -0.3572E-06  0.1000E-02  0.1000E-02
    -16.435 -0.1091E-11 -0.3617E-08  0.1000E-02  0.1000E-02
    -16.367 -0.1125E-14 -0.1404E-10  0.1000E-02  0.1000E-02
    -16.300  0.0000E+00 -0.2124E-13  0.1000E-02  0.1000E-02
    -16.232  0.0000E+00 -0.1315E-16  0.1000E-02  0.1000E-02
    -16.165  0.0000E+00  0.0000E+00  0.1000E-02  0.1000E-02
    -16.097  0.0000E+00  0.0000E+00  0.1000E-02  0.1000E-02
    -16.030  0.0000E+00  0.0000E+00  0.1000E-02  0.1000E-02
    -15.962  0.0000E+00  0.0000E+00  0.1000E-02  0.1000E-02
    -15.894  0.0000E+00  0.0000E+00  0.1000E-02  0.1000E-02
    -15.827  0.0000E+00  0.0000E+00  0.1000E-02  0.1000E-02
    -15.759  0.0000E+00  0.0000E+00  0.1000E-02  0.1000E-02
    -15.692  0.0000E+00  0.0000E+00  0.1000E-02  0.1000E-02
    -15.624  0.0000E+00  0.0000E+00  0.1000E-02  0.1000E-02
    -15.557  0.0000E+00  0.0000E+00  0.1000E-02  0.1000E-02
    -15.489  0.0000E+00  0.0000E+00  0.1000E-02  0.1000E-02
    -15.422  0.0000E+00  0.0000E+00  0.1000E-02  0.1000E-02
    -15.354  0.0000E+00  0.0000E+00  0.1000E-02  0.1000E-02
    -15.287  0.0000E+00  0.0000E+00  0.1000E-02  0.1000E-02
    -15.219  0.0000E+00  0.0000E+00  0.1000E-02  0.1000E-02
    -15.152  0.0000E+00  0.0000E+00  0.1000E-02  0.1000E-02
    -15.084  0.0000E+00  0.0000E+00  0.1000E-02  0.1000E-02
    -15.016  0.0000E+00  0.0000E+00  0.1000E-02  0.1000E-02
    -14.949  0.0000E+00  0.0000E+00  0.1000E-02  0.1000E-02
    -14.881  0.0000E+00  0.0000E+00  0.1000E-02  0.1000E-02
    -14.814  0.0000E+00  0.0000E+00  0.1000E-02  0.1000E-02
    -14.746  0.0000E+00  0.0000E+00  0.1000E-02  0.1000E-02
    -14.679  0.0000E+00  0.0000E+00  0.1000E-02  0.1000E-02
    -14.611  0.0000E+00  0.0000E+00  0.1000E-02  0.1000E-02
    -14.544  0.0000E+00  0.0000E+00  0.1000E-02  0.1000E-02
    -14.476  0.0000E+00  0.0000E+00  0.1000E-02  0.1000E-02
    -14.409  0.0000E+00  0.0000E+00  0.1000E-02  0.1000E-02
    -14.341  0.0000E+00  0.0000E+00  0.1000E-02  0.1000E-02
    -14.274  0.0000E+00  0.0000E+00  0.1000E-02  0.1000E-02
    -14.206  0.0000E+00  0.0000E+00  0.1000E-02  0.1000E-02
    -14.139  0.0000E+00  0.0000E+00  0.1000E-02  0.1000E-02
    -14.071  0.0000E+00  0.0000E+00  0.1000E-02  0.1000E-02
    -14.003  0.0000E+00  0.0000E+00  0.1000E-02  0.1000E-02
    -13.936  0.0000E+00  0.0000E+00  0.1000E-02  0.1000E-02
    -13.868  0.0000E+00  0.0000E+00  0.1000E-02  0.1000E-02
    -13.801  0.0000E+00  0.0000E+00  0.1000E-02  0.1000E-02
    -13.733  0.0000E+00  0.0000E+00  0.1000E-02  0.1000E-02
    -13.666  0.0000E+00  0.0000E+00  0.1000E-02  0.1000E-02
    -13.598  0.0000E+00  0.0000E+00  0.1000E-02  0.1000E-02
    -13.531  0.0000E+00  0.0000E+00  0.1000E-02  0.1000E-02
    -13.463  0.0000E+00  0.0000E+00  0.1000E-02  0.1000E-02
    -13.396  0.0000E+00  0.0000E+00  0.1000E-02  0.1000E-02
    -13.328  0.0000E+00  0.0000E+00  0.1000E-02  0.1000E-02
    -13.261  0.0000E+00  0.0000E+00  0.1000E-02  0.1000E-02
    -13.193  0.0000E+00  0.0000E+00  0.1000E-02  0.1000E-02
    -13.125  0.0000E+00  0.0000E+00  0.1000E-02  0.1000E-02
    -13.058  0.0000E+00  0.0000E+00  0.1000E-02  0.1000E-02
    -12.990  0.0000E+00  0.0000E+00  0.1000E-02  0.1000E-02
    -12.923  0.0000E+00  0.0000E+00  0.1000E-02  0.1000E-02
    -12.855  0.0000E+00  0.0000E+00  0.1000E-02  0.1000E-02
    -12.788  0.0000E+00  0.0000E+00  0.1000E-02  0.1000E-02
    -12.720  0.0000E+00  0.0000E+00  0.1000E-02  0.1000E-02
    -12.653  0.0000E+00  0.0000E+00  0.1000E-02  0.1000E-02
    -12.585  0.0000E+00  0.0000E+00  0.1000E-02  0.1000E-02
    -12.518  0.0000E+00  0.0000E+00  0.1000E-02  0.1000E-02
    -12.450  0.0000E+00  0.0000E+00  0.1000E-02  0.1000E-02
    -12.383  0.0000E+00  0.0000E+00  0.1000E-02  0.1000E-02
    -12.315  0.0000E+00  0.0000E+00  0.1000E-02  0.1000E-02
    -12.247  0.0000E+00  0.0000E+00  0.1000E-02  0.1000E-02
    -12.180  0.0000E+00  0.0000E+00  0.1000E-02  0.1000E-02
    -12.112  0.0000E+00  0.0000E+00  0.1000E-02  0.1000E-02
    -12.045  0.0000E+00  0.0000E+00  0.1000E-02  0.1000E-02
    -11.977  0.0000E+00  0.0000E+00  0.1000E-02  0.1000E-02
    -11.910  0.0000E+00  0.0000E+00  0.1000E-02  0.1000E-02
    -11.842  0.0000E+00  0.0000E+00  0.1000E-02  0.1000E-02
    -11.775  0.0000E+00  0.0000E+00  0.1000E-02  0.1000E-02
    -11.707  0.0000E+00  0.0000E+00  0.1000E-02  0.1000E-02
    -11.640  0.0000E+00  0.0000E+00  0.1000E-02  0.1000E-02
    -11.572  0.0000E+00  0.0000E+00  0.1000E-02  0.1000E-02
    -11.505  0.0000E+00  0.0000E+00  0.1000E-02  0.1000E-02
    -11.437  0.0000E+00  0.0000E+00  0.1000E-02  0.1000E-02
    -11.369  0.0000E+00  0.0000E+00  0.1000E-02  0.1000E-02
    -11.302  0.0000E+00  0.0000E+00  0.1000E-02  0.1000E-02
    -11.234  0.0000E+00  0.0000E+00  0.1000E-02  0.1000E-02
    -11.167  0.0000E+00  0.0000E+00  0.1000E-02  0.1000E-02
    -11.099  0.0000E+00  0.0000E+00  0.1000E-02  0.1000E-02
    -11.032  0.0000E+00  0.0000E+00  0.1000E-02  0.1000E-02
    -10.964  0.0000E+00  0.0000E+00  0.1000E-02  0.1000E-02
    -10.897  0.0000E+00  0.0000E+00  0.1000E-02  0.1000E-02
    -10.829  0.0000E+00  0.0000E+00  0.1000E-02  0.1000E-02
    -10.762  0.0000E+00  0.0000E+00  0.1000E-02  0.1000E-02
    -10.694  0.0000E+00  0.0000E+00  0.1000E-02  0.1000E-02
    -10.627  0.0000E+00  0.0000E+00  0.1000E-02  0.1000E-02
    -10.559  0.0000E+00  0.0000E+00  0.1000E-02  0.1000E-02
    -10.491  0.0000E+00  0.0000E+00  0.1000E-02  0.1000E-02
    -10.424  0.0000E+00  0.0000E+00  0.1000E-02  0.1000E-02
    -10.356  0.0000E+00  0.0000E+00  0.1000E-02  0.1000E-02
    -10.289  0.0000E+00  0.0000E+00  0.1000E-02  0.1000E-02
    -10.221 -0.1453E-30  0.0000E+00  0.1000E-02  0.1000E-02
    -10.154 -0.6180E-26 -0.2672E-32  0.1000E-02  0.1000E-02
    -10.086 -0.1047E-21 -0.1574E-27  0.1000E-02  0.1000E-02
    -10.019 -0.7061E-18 -0.3696E-23  0.1000E-02  0.1000E-02
     -9.951 -0.1829E-14 -0.3454E-19  0.1000E-02  0.1000E-02
     -9.884 -0.1919E-11 -0.1246E-15  0.1000E-02  0.1000E-02
     -9.816 -0.7882E-09 -0.1817E-12  0.1000E-02  0.1000E-02
     -9.749 -0.1253E-06 -0.1041E-09  0.1000E-02  0.1000E-02
     -9.681 -0.7524E-05 -0.2322E-07  0.9995E-03  0.1000E-02
     -9.613 -0.1607E-03 -0.1976E-05  0.9886E-03  0.9999E-03
     -9.546 -0.9848E-03 -0.6157E-04  0.9221E-03  0.9957E-03
     -9.478  0.9645E-03 -0.6181E-03  0.9873E-03  0.9540E-03
     -9.411  0.1552E-01 -0.7705E-03  0.2035E-02  0.9019E-03
     -9.343  0.2304E-01  0.9150E-02  0.3592E-02  0.1520E-02
     -9.276  0.7595E-02  0.2358E-01  0.4105E-02  0.3112E-02
     -9.208 -0.9721E-03  0.1383E-01  0.4039E-02  0.4046E-02
     -9.141 -0.5275E-03  0.3367E-03  0.4003E-02  0.4069E-02
     -9.073 -0.4673E-04 -0.8919E-03  0.4000E-02  0.4009E-02
     -9.006 -0.1362E-05 -0.1266E-03  0.4000E-02  0.4000E-02
     -8.938 -0.1461E-07 -0.5359E-05  0.4000E-02  0.4000E-02
     -8.871 -0.5995E-10 -0.8138E-07  0.4000E-02  0.4000E-02
     -8.803 -0.9585E-13 -0.4682E-09  0.4000E-02  0.4000E-02
     -8.735 -0.6247E-16 -0.1044E-11  0.4000E-02  0.4000E-02
     -8.668  0.0000E+00 -0.9111E-15  0.4000E-02  0.4000E-02
     -8.600  0.0000E+00  0.0000E+00  0.4000E-02  0.4000E-02
     -8.533  0.0000E+00  0.0000E+00  0.4000E-02  0.4000E-02
     -8.465  0.0000E+00  0.0000E+00  0.4000E-02  0.4000E-02
     -8.398  0.0000E+00  0.0000E+00  0.4000E-02  0.4000E-02
     -8.330  0.0000E+00  0.0000E+00  0.4000E-02  0.4000E-02
     -8.263  0.0000E+00  0.0000E+00  0.4000E-02  0.4000E-02
     -8.195  0.0000E+00  0.0000E+00  0.4000E-02  0.4000E-02
     -8.128  0.0000E+00  0.0000E+00  0.4000E-02  0.4000E-02
     -8.060  0.0000E+00  0.0000E+00  0.4000E-02  0.4000E-02
     -7.993  0.0000E+00  0.0000E+00  0.4000E-02  0.4000E-02
     -7.925  0.0000E+00  0.0000E+00  0.4000E-02  0.4000E-02
     -7.857  0.0000E+00  0.0000E+00  0.4000E-02  0.4000E-02
     -7.790  0.0000E+00  0.0000E+00  0.4000E-02  0.4000E-02
     -7.722  0.0000E+00  0.0000E+00  0.4000E-02  0.4000E-02
     -7.655  0.0000E+00  0.0000E+00  0.4000E-02  0.4000E-02
     -7.587  0.0000E+00  0.0000E+00  0.4000E-02  0.4000E-02
     -7.520  0.0000E+00  0.0000E+00  0.4000E-02  0.4000E-02
     -7.452  0.0000E+00  0.0000E+00  0.4000E-02  0.4000E-02
     -7.385  0.0000E+00  0.0000E+00  0.4000E-02  0.4000E-02
     -7.317  0.0000E+00  0.0000E+00  0.4000E-02  0.4000E-02
     -7.250  0.0000E+00  0.0000E+00  0.4000E-02  0.4000E-02
     -7.182  0.0000E+00  0.0000E+00  0.4000E-02  0.4000E-02
     -7.115  0.0000E+00  0.0000E+00  0.4000E-02  0.4000E-02
     -7.047  0.0000E+00  0.0000E+00  0.4000E-02  0.4000E-02
     -6.979  0.0000E+00  0.0000E+00  0.4000E-02  0.4000E-02
     -6.912  0.0000E+00  0.0000E+00  0.4000E-02  0.4000E-02
     -6.844  0.0000E+00  0.0000E+00  0.4000E-02  0.4000E-02
     -6.777  0.0000E+00  0.0000E+00  0.4000E-02  0.4000E-02
     -6.709  0.0000E+00  0.0000E+00  0.4000E-02  0.4000E-02
     -6.642  0.0000E+00  0.0000E+00  0.4000E-02  0.4000E-02
     -6.574  0.0000E+00  0.0000E+00  0.4000E-02  0.4000E-02
     -6.507  0.0000E+00  0.0000E+00  0.4000E-02  0.4000E-02
     -6.439  0.0000E+00  0.0000E+00  0.4000E-02  0.4000E-02
     -6.372  0.0000E+00  0.0000E+00  0.4000E-02  0.4000E-02
     -6.304  0.0000E+00  0.0000E+00  0.4000E-02  0.4000E-02
     -6.237  0.0000E+00  0.0000E+00  0.4000E-02  0.4000E-02
     -6.169  0.0000E+00  0.0000E+00  0.4000E-02  0.4000E-02
     -6.101  0.0000E+00  0.0000E+00  0.4000E-02  0.4000E-02
     -6.034  0.0000E+00  0.0000E+00  0.4000E-02  0.4000E-02
     -5.966  0.0000E+00  0.0000E+00  0.4000E-02  0.4000E-02
     -5.899  0.0000E+00  0.0000E+00  0.4000E-02  0.4000E-02
     -5.831  0.0000E+00  0.0000E+00  0.4000E-02  0.4000E-02
     -5.764  0.0000E+00  0.0000E+00  0.4000E-02  0.4000E-02
     -5.696  0.0000E+00  0.0000E+00  0.4000E-02  0.4000E-02
     -5.629  0.0000E+00  0.0000E+00  0.4000E-02  0.4000E-02
     -5.561  0.0000E+00  0.0000E+00  0.4000E-02  0.4000E-02
     -5.494  0.0000E+00  0.0000E+00  0.4000E-02  0.4000E-02
     -5.426  0.0000E+00  0.0000E+00  0.4000E-02  0.4000E-02
     -5.359  0.0000E+00  0.0000E+00  0.4000E-02  0.4000E-02
     -5.291  0.0000E+00  0.0000E+00  0.4000E-02  0.4000E-02
     -5.223  0.0000E+00  0.0000E+00  0.4000E-02  0.4000E-02
     -5.156  0.0000E+00  0.0000E+00  0.4000E-02  0.4000E-02
     -5.088  0.0000E+00  0.0000E+00  0.4000E-02  0.4000E-02
     -5.021  0.0000E+00  0.0000E+00  0.4000E-02  0.4000E-02
     -4.953  0.0000E+00  0.0000E+00  0.4000E-02  0.4000E-02
     -4.886  0.0000E+00  0.0000E+00  0.4000E-02  0.4000E-02
     -4.818  0.0000E+00  0.0000E+00  0.4000E-02  0.4000E-02
     -4.751  0.0000E+00  0.0000E+00  0.4000E-02  0.4000E-02
     -4.683  0.0000E+00  0.0000E+00  0.4000E-02  0.4000E-02
     -4.616  0.0000E+00  0.0000E+00  0.4000E-02  0.4000E-02
     -4.548  0.0000E+00  0.0000E+00  0.4000E-02  0.4000E-02
     -4.481  0.0000E+00  0.0000E+00  0.4000E-02  0.4000E-02
     -4.413  0.0000E+00  0.0000E+00  0.4000E-02  0.4000E-02
     -4.345  0.0000E+00  0.0000E+00  0.4000E-02  0.4000E-02
     -4.278  0.0000E+00  0.0000E+00  0.4000E-02  0.4000E-02
     -4.210  0.0000E+00  0.0000E+00  0.4000E-02  0.4000E-02
     -4.143  0.0000E+00  0.0000E+00  0.4000E-02  0.4000E-02
     -4.075  0.0000E+00  0.0000E+00  0.4000E-02  0.4000E-02
     -4.008  0.0000E+00  0.0000E+00  0.4000E-02  0.4000E-02
     -3.940  0.0000E+00  0.0000E+00  0.4000E-02  0.4000E-02
     -3.873  0.0000E+00  0.0000E+00  0.4000E-02  0.4000E-02
     -3.805  0.0000E+00  0.0000E+00  0.4000E-02  0.4000E-02
     -3.738  0.0000E+00  0.0000E+00  0.4000E-02  0.4000E-02
     -3.670  0.0000E+00  0.0000E+00  0.4000E-02  0.4000E-02
     -3.603  0.0000E+00  0.0000E+00  0.4000E-02  0.4000E-02
     -3.535  0.0000E+00  0.0000E+00  0.4000E-02  0.4000E-02
     -3.467  0.0000E+00  0.0000E+00  0.4000E-02  0.4000E-02
     -3.400  0.0000E+00  0.0000E+00  0.4000E-02  0.4000E-02
     -3.332  0.0000E+00  0.0000E+00  0.4000E-02  0.4000E-02
     -3.265  0.0000E+00  0.0000E+00  0.4000E-02  0.4000E-02
     -3.197  0.0000E+00  0.0000E+00  0.4000E-02  0.4000E-02
     -3.130  0.0000E+00  0.0000E+00  0.4000E-02  0.4000E-02
     -3.062  0.0000E+00  0.0000E+00  0.4000E-02  0.4000E-02
     -2.995  0.0000E+00  0.0000E+00  0.4000E-02  0.4000E-02
     -2.927  0.0000E+00  0.0000E+00  0.4000E-02  0.4000E-02
     -2.860  0.0000E+00  0.0000E+00  0.4000E-02  0.4000E-02
     -2.792  0.0000E+00  0.0000E+00  0.4000E-02  0.4000E-02
     -2.725  0.0000E+00  0.0000E+00  0.4000E-02  0.4000E-02
     -2.657  0.0000E+00  0.0000E+00  0.4000E-02  0.4000E-02
     -2.589  0.0000E+00  0.0000E+00  0.4000E-02  0.4000E-02
     -2.522  0.0000E+00  0.0000E+00  0.4000E-02  0.4000E-02
     -2.454  0.0000E+00  0.0000E+00  0.4000E-02  0.4000E-02
     -2.387  0.0000E+00  0.0000E+00  0.4000E-02  0.4000E-02
     -2.319  0.0000E+00  0.0000E+00  0.4000E-02  0.4000E-02
     -2.252  0.0000E+00  0.0000E+00  0.4000E-02  0.4000E-02
     -2.184  0.0000E+00  0.0000E+00  0.4000E-02  0.4000E-02
     -2.117  0.0000E+00  0.0000E+00  0.4000E-02  0.4000E-02
     -2.049  0.0000E+00  0.0000E+00  0.4000E-02  0.4000E-02
     -1.982  0.0000E+00  0.0000E+00  0.4000E-02  0.4000E-02
     -1.914  0.0000E+00  0.0000E+00  0.4000E-02  0.4000E-02
     -1.847  0.0000E+00  0.0000E+00  0.4000E-02  0.4000E-02
     -1.779  0.0000E+00  0.0000E+00  0.4000E-02  0.4000E-02
     -1.711  0.0000E+00  0.0000E+00  0.4000E-02  0.4000E-02
     -1.644  0.0000E+00  0.0000E+00  0.4000E-02  0.4000E-02
     -1.576  0.0000E+00  0.0000E+00  0.4000E-02  0.4000E-02
     -1.509  0.0000E+00  0.0000E+00  0.4000E-02  0.4000E-02
     -1.441  0.0000E+00  0.0000E+00  0.4000E-02  0.4000E-02
     -1.374  0.0000E+00  0.0000E+00  0.4000E-02  0.4000E-02
     -1.306 -0.1193E-33 -0.8797E-34  0.4000E-02  0.4000E-02
     -1.239 -0.6925E-29 -0.5232E-29  0.4000E-02  0.4000E-02
     -1.171 -0.1602E-24 -0.1241E-24  0.4000E-02  0.4000E-02
     -1.104 -0.1476E-20 -0.1171E-20  0.4000E-02  0.4000E-02
     -1.036 -0.5219E-17 -0.4300E-17  0.4000E-02  0.4000E-02
     -0.969 -0.7547E-14 -0.6288E-14  0.4000E-02  0.4000E-02
     -0.901 -0.4276E-11 -0.3649E-11  0.4000E-02  0.4000E-02
     -0.834 -0.9474E-09 -0.8275E-09  0.4000E-02  0.4000E-02
     -0.766 -0.8116E-07 -0.7244E-07  0.4000E-02  0.4000E-02
     -0.698 -0.2629E-05 -0.2392E-05  0.4000E-02  0.4000E-02
     -0.631 -0.3042E-04 -0.2809E-04  0.3998E-02  0.3998E-02
     -0.563 -0.9552E-04 -0.8958E-04  0.3991E-02  0.3992E-02
     -0.496  0.2101E-03  0.1888E-03  0.4005E-02  0.4005E-02
     -0.428  0.1610E-02  0.1482E-02  0.4114E-02  0.4105E-02
     -0.361  0.3804E-02  0.3538E-02  0.4371E-02  0.4344E-02
     -0.293  0.5333E-02  0.5171E-02  0.4731E-02  0.4693E-02
     -0.226  0.3663E-02  0.3973E-02  0.4979E-02  0.4961E-02
     -0.158  0.5953E-03  0.8645E-03  0.5019E-02  0.5020E-02
     -0.091 -0.2165E-03 -0.2096E-03  0.5004E-02  0.5005E-02
     -0.023 -0.6993E-04 -0.8546E-04  0.5000E-02  0.5000E-02
      0.044 -0.7070E-04 -0.7590E-04  0.4995E-02  0.4995E-02
      0.112 -0.2614E-04 -0.4390E-04  0.4993E-02  0.4992E-02
      0.180  0.7755E-03  0.7999E-03  0.5045E-02  0.5046E-02
      0.247  0.2321E-02  0.2449E-02  0.5202E-02  0.5211E-02
      0.315  0.4400E-02  0.4738E-02  0.5499E-02  0.5531E-02
      0.382  0.6826E-02  0.7157E-02  0.5960E-02  0.6014E-02
      0.450  0.7045E-02  0.7144E-02  0.6436E-02  0.6497E-02
      0.517  0.7452E-02  0.7419E-02  0.6939E-02  0.6998E-02
      0.585  0.5243E-02  0.4651E-02  0.7293E-02  0.7312E-02
      0.652  0.1479E-02  0.1176E-02  0.7393E-02  0.7391E-02
      0.720  0.2083E-02  0.2115E-02  0.7534E-02  0.7534E-02
      0.787  0.4304E-02  0.4217E-02  0.7825E-02  0.7819E-02
      0.855  0.7598E-02  0.7814E-02  0.8338E-02  0.8347E-02
      0.922  0.1088E-01  0.1173E-01  0.9073E-02  0.9139E-02
      0.990  0.1073E-01  0.1091E-01  0.9797E-02  0.9876E-02
      1.058  0.6155E-02  0.5666E-02  0.1021E-01  0.1026E-01
      1.125  0.4115E-02  0.3778E-02  0.1049E-01  0.1051E-01
      1.193  0.3297E-02  0.3164E-02  0.1071E-01  0.1073E-01
      1.260  0.2352E-02  0.2381E-02  0.1087E-01  0.1089E-01
      1.328  0.1649E-02  0.1521E-02  0.1098E-01  0.1099E-01
      1.395  0.3752E-03  0.2665E-03  0.1101E-01  0.1101E-01
      1.463 -0.9631E-04 -0.9762E-04  0.1100E-01  0.1100E-01
      1.530 -0.3403E-04 -0.2737E-04  0.1100E-01  0.1100E-01
      1.598 -0.2648E-05 -0.1881E-05  0.1100E-01  0.1100E-01
      1.665 -0.6995E-07 -0.4456E-07  0.1100E-01  0.1100E-01
      1.733 -0.6862E-09 -0.3940E-09  0.1100E-01  0.1100E-01
      1.800 -0.2585E-11 -0.1340E-11  0.1100E-01  0.1100E-01
      1.868 -0.3798E-14 -0.1781E-14  0.1100E-01  0.1100E-01
      1.936 -0.2192E-17 -0.7306E-18  0.1100E-01  0.1100E-01
      2.003  0.0000E+00  0.0000E+00  0.1100E-01  0.1100E-01
      2.071  0.0000E+00  0.0000E+00  0.1100E-01  0.1100E-01
      2.138  0.0000E+00  0.0000E+00  0.1100E-01  0.1100E-01
      2.206  0.0000E+00  0.0000E+00  0.1100E-01  0.1100E-01
      2.273  0.0000E+00  0.0000E+00  0.1100E-01  0.1100E-01
