    5    5 1000    2
  0.3584448E+03  0.1016000E-08  0.1176000E-08  0.1500000E-08  0.5000000E-15
  1.000000000000000E-004
  CAR 
 Beta12Borophene !The name of the system 
    8    9   11
 
  0.0000000E+00  0.0000000E+00  0.2500000E+00  0.1111111E+00
   1      -16.988167    -16.892877
   2       -9.392478     -9.301125
   3       -9.392313     -9.300656
   4       -9.391727     -9.300345
   5       -0.454339     -0.452539
   6        0.186445      0.188972
   7        0.711847      0.709711
   8        0.793980      0.787428
   9        0.938446      0.919923
  10        1.074100      1.071551
  11        1.196295      1.187068
 
  0.3333333E+00  0.0000000E+00  0.2500000E+00  0.1111111E+00
   1      -16.988171    -16.892880
   2       -9.392482     -9.301136
   3       -9.392322     -9.300663
   4       -9.391735     -9.300350
   5       -0.342491     -0.337208
   6        0.311948      0.311711
   7        0.428974      0.418049
   8        0.827219      0.827880
   9        0.908091      0.905155
  10        0.915397      0.915487
  11        1.091079      1.075436
 
 -0.3333333E+00  0.0000000E+00  0.2500000E+00  0.1111111E+00
   1      -16.988172    -16.892882
   2       -9.392477     -9.301137
   3       -9.392327     -9.300667
   4       -9.391733     -9.300343
   5       -0.342489     -0.337192
   6        0.311442      0.310369
   7        0.429543      0.419665
   8        0.825844      0.827942
   9        0.908125      0.904785
  10        0.915997      0.914252
  11        1.094789      1.079263
 
  0.0000000E+00  0.3333333E+00  0.2500000E+00  0.1111111E+00
   1      -16.988159    -16.892868
   2       -9.392471     -9.301131
   3       -9.392316     -9.300661
   4       -9.391730     -9.300334
   5       -0.393328     -0.388389
   6        0.246274      0.241770
   7        0.357428      0.347038
   8        0.694779      0.694991
   9        0.903626      0.904373
  10        1.136043      1.136450
  11        1.273251      1.265887
 
  0.3333333E+00  0.3333333E+00  0.2500000E+00  0.1111111E+00
   1      -16.988165    -16.892875
   2       -9.392479     -9.301129
   3       -9.392325     -9.300664
   4       -9.391726     -9.300346
   5       -0.286543     -0.278323
   6        0.376458      0.370644
   7        0.502015      0.492858
   8        0.524345      0.516765
   9        0.821698      0.824383
  10        0.936286      0.930363
  11        0.993041      0.978381
 
 -0.3333333E+00  0.3333333E+00  0.2500000E+00  0.1111111E+00
   1      -16.988163    -16.892872
   2       -9.392482     -9.301129
   3       -9.392322     -9.300662
   4       -9.391728     -9.300351
   5       -0.286587     -0.278349
   6        0.375577      0.369180
   7        0.499943      0.490724
   8        0.524965      0.518186
   9        0.819754      0.821498
  10        0.949843      0.943782
  11        0.990121      0.978965
 
  0.0000000E+00 -0.3333333E+00  0.2500000E+00  0.1111111E+00
   1      -16.988155    -16.892864
   2       -9.392480     -9.301129
   3       -9.392316     -9.300662
   4       -9.391731     -9.300345
   5       -0.393331     -0.388376
   6        0.246464      0.240850
   7        0.357155      0.348324
   8        0.694842      0.695039
   9        0.903629      0.903429
  10        1.135918      1.136317
  11        1.272248      1.265094
 
  0.3333333E+00 -0.3333333E+00  0.2500000E+00  0.1111111E+00
   1      -16.988169    -16.892878
   2       -9.392474     -9.301131
   3       -9.392323     -9.300664
   4       -9.391729     -9.300342
   5       -0.286585     -0.278345
   6        0.376013      0.369166
   7        0.499903      0.492604
   8        0.524801      0.516708
   9        0.820498      0.822847
  10        0.946417      0.937504
  11        0.992507      0.982317
 
 -0.3333333E+00 -0.3333333E+00  0.2500000E+00  0.1111111E+00
   1      -16.988160    -16.892870
   2       -9.392473     -9.301133
   3       -9.392332     -9.300669
   4       -9.391728     -9.300342
   5       -0.286547     -0.278306
   6        0.376108      0.369346
   7        0.501405      0.493214
   8        0.525122      0.517927
   9        0.820807      0.822621
  10        0.938552      0.933397
  11        0.992861      0.979691
