 vasp.5.3.3 18Dez12 (build Aug 26 2015 16:06:49) complex                        
  
 executed on             LinuxIFC date 2020.05.07  16:10:37
 running on    4 total cores
 distrk:  each k-point on    4 cores,    1 groups
 distr:  one band on NCORES_PER_BAND=   4 cores,    1 groups


--------------------------------------------------------------------------------------------------------


 INCAR:
 POTCAR:    PAW_PBE C 08Apr2002                   
 POTCAR:    PAW_PBE H 15Jun2001                   
 POTCAR:    PAW_PBE C 08Apr2002                   
   SHA256 =  253f7b50bb8d59471dbedb8285d89021f4a42ed1a2c5d38a03a736e69125dd95 C/
   COPYR  = (c) Copyright 08Apr2002 Georg Kresse                                
   COPYR  = This file is part of the software VASP. Any use, copying, and all ot
   COPYR  = If you do not have a valid VASP license, you may not use, copy or di
   VRHFIN =C: s2p2                                                              
   LEXCH  = PE                                                                  
   EATOM  =   147.1560 eV,   10.8157 Ry                                         
                                                                                
   TITEL  = PAW_PBE C 08Apr2002                                                 
   LULTRA =        F    use ultrasoft PP ?                                      
   IUNSCR =        1    unscreen: 0-lin 1-nonlin 2-no                           
   RPACOR =    1.200    partial core radius                                     
   POMASS =   12.011; ZVAL   =    4.000    mass and valenz                      
   RCORE  =    1.500    outmost cutoff radius                                   
   RWIGS  =    1.630; RWIGS  =    0.863    wigner-seitz radius (au A)           
   ENMAX  =  400.000; ENMIN  =  300.000 eV                                      
   ICORE  =        2    local potential                                         
   LCOR   =        T    correct aug charges                                     
   LPAW   =        T    paw PP                                                  
   EAUG   =  644.873                                                            
   DEXC   =    0.000                                                            
   RMAX   =    1.529    core radius for proj-oper                               
   RAUG   =    1.300    factor for augmentation sphere                          
   RDEP   =    1.501    radius for radial grids                                 
   RDEPT  =    1.300    core radius for aug-charge                              
                                                                                
   Atomic configuration                                                         
    4 entries                                                                   
     n  l   j            E        occ.                                          
     1  0  0.50      -273.3789   2.0000                                         
     2  0  0.50       -13.7508   2.0000                                         
     2  1  0.50        -5.2854   2.0000                                         
     3  2  1.50        -5.4423   0.0000                                         
   Description                                                                  
     l       E           TYP  RCUT    TYP  RCUT                                 
     0    -13.7508458     23  1.200                                             
     0     -8.2022199     23  1.200                                             
     1     -5.2854383     23  1.500                                             
     1     34.0145650     23  1.500                                             
     2     -5.4423304      7  1.500                                             
  local pseudopotential read in
  partial core-charges read in
  partial kinetic energy density read in
  atomic valenz-charges read in
  non local Contribution for L=           0  read in
    real space projection operators read in
  non local Contribution for L=           0  read in
    real space projection operators read in
  non local Contribution for L=           1  read in
    real space projection operators read in
  non local Contribution for L=           1  read in
    real space projection operators read in
    PAW grid and wavefunctions read in
 
   number of l-projection  operators is LMAX  =           4
   number of lm-projection operators is LMMAX =           8
 
 POTCAR:    PAW_PBE H 15Jun2001                   
   SHA256 =  030f79b5d3ab3cf0e668861823c8fb652ff669f3e15e46930bd03bfd63a607b6 H/
   COPYR  = (c) Copyright 15Jun2001 Georg Kresse                                
   COPYR  = This file is part of the software VASP. Any use, copying, and all ot
   COPYR  = If you do not have a valid VASP license, you may not use, copy or di
   VRHFIN =H: ultrasoft test                                                    
   LEXCH  = PE                                                                  
   EATOM  =    12.4884 eV,    0.9179 Ry                                         
                                                                                
   TITEL  = PAW_PBE H 15Jun2001                                                 
   LULTRA =        F    use ultrasoft PP ?                                      
   IUNSCR =        0    unscreen: 0-lin 1-nonlin 2-no                           
   RPACOR =    0.000    partial core radius                                     
   POMASS =    1.000; ZVAL   =    1.000    mass and valenz                      
   RCORE  =    1.100    outmost cutoff radius                                   
   RWIGS  =    0.700; RWIGS  =    0.370    wigner-seitz radius (au A)           
   ENMAX  =  250.000; ENMIN  =  200.000 eV                                      
   RCLOC  =    0.701    cutoff for local pot                                    
   LCOR   =        T    correct aug charges                                     
   LPAW   =        T    paw PP                                                  
   EAUG   =  400.000                                                            
   RMAX   =    1.123    core radius for proj-oper                               
   RAUG   =    1.200    factor for augmentation sphere                          
   RDEP   =    1.112    radius for radial grids                                 
   RDEPT  =    0.926    core radius for aug-charge                              
                                                                                
   Atomic configuration                                                         
    2 entries                                                                   
     n  l   j            E        occ.                                          
     1  0  0.50        -6.4927   1.0000                                         
     2  1  0.50        -3.4015   0.0000                                         
   Description                                                                  
     l       E           TYP  RCUT    TYP  RCUT                                 
     0     -6.4927494     23  1.100                                             
     0      6.8029130     23  1.100                                             
     1     -4.0817478     23  1.100                                             
  local pseudopotential read in
  atomic valenz-charges read in
  non local Contribution for L=           0  read in
    real space projection operators read in
  non local Contribution for L=           0  read in
    real space projection operators read in
  non local Contribution for L=           1  read in
    real space projection operators read in
    PAW grid and wavefunctions read in
 
   number of l-projection  operators is LMAX  =           3
   number of lm-projection operators is LMMAX =           5
 

 ----------------------------------------------------------------------------- 
|                                                                             |
|  ADVICE TO THIS USER RUNNING 'VASP/VAMP'   (HEAR YOUR MASTER'S VOICE ...):  |
|                                                                             |
|      You have a (more or less) 'small supercell' and for smaller cells      |
|      it is recommended  to use the reciprocal-space projection scheme!      |
|      The real space optimization is not  efficient for small cells and it   |
|      is also less accurate ...                                              |
|      Therefore set LREAL=.FALSE. in the  INCAR file                         |
|                                                                             |
 ----------------------------------------------------------------------------- 

 Optimization of the real space projectors (new method)

 maximal supplied QI-value         = 25.13
 optimisation between [QCUT,QGAM] = [ 11.31, 22.87] = [ 35.82,146.48] Ry 
 Optimized for a Real-space Cutoff    1.00 Angstroem

   l    n(q)    QCUT    max X(q) W(low)/X(q) W(high)/X(q)  e(spline) 
   0      7    11.310   115.676    0.43E-03    0.13E-02    0.19E-06
   0      7    11.310    87.132    0.43E-03    0.13E-02    0.18E-06
   1      6    11.310     4.429    0.42E-03    0.74E-03    0.11E-06
   1      6    11.310     2.733    0.34E-03    0.55E-03    0.92E-07
 Optimization of the real space projectors (new method)

 maximal supplied QI-value         = 34.20
 optimisation between [QCUT,QGAM] = [ 11.29, 22.57] = [ 35.68,142.71] Ry 
 Optimized for a Real-space Cutoff    1.16 Angstroem

   l    n(q)    QCUT    max X(q) W(low)/X(q) W(high)/X(q)  e(spline) 
   0      8    11.287    19.460    0.40E-03    0.73E-03    0.16E-06
   0      8    11.287    12.209    0.38E-03    0.70E-03    0.15E-06
   1      7    11.287     4.655    0.22E-03    0.25E-04    0.22E-06
  PAW_PBE C 08Apr2002                   :
 energy of atom  1       EATOM= -147.1560
 kinetic energy error for atom=    0.0076 (will be added to EATOM!!)
  PAW_PBE H 15Jun2001                   :
 energy of atom  2       EATOM=  -12.4884
 kinetic energy error for atom=    0.0020 (will be added to EATOM!!)
 
 
 POSCAR: MoleculeAdsorption                      
  positions in direct lattice
  velocities in cartesian coordinates
  No initial velocities read in
 exchange correlation table for  LEXCH =        8
   RHO(1)=    0.500       N(1)  =     2000
   RHO(2)=  100.500       N(2)  =     4000
 


--------------------------------------------------------------------------------------------------------


 ion  position               nearest neighbor table
   1  0.000  0.000  0.000-   2 1.11   3 1.11   4 1.11   5 1.11
   2  0.109  0.000  0.000-   1 1.11
   3  0.964  0.052  0.056-   1 1.11
   4  0.964  0.912  0.007-   1 1.11
   5  0.964  0.036  0.936-   1 1.11
 
  LATTYP: Found a simple orthorhombic cell.
 ALAT       =    10.1600000000
 B/A-ratio  =     1.1574803150
 C/A-ratio  =     1.4763779528
  
  Lattice vectors:
  
 A1 = (  10.1600000000,   0.0000000000,   0.0000000000)
 A2 = (   0.0000000000,  11.7600000000,   0.0000000000)
 A3 = (   0.0000000000,   0.0000000000,  15.0000000000)


Analysis of symmetry for initial positions (statically):
=====================================================================
 Subroutine PRICEL returns:
 Original cell was already a primitive cell.
 

 Routine SETGRP: Setting up the symmetry group for a 
 simple orthorhombic supercell.


 Subroutine GETGRP returns: Found  1 space group operations
 (whereof  1 operations were pure point group operations)
 out of a pool of  8 trial point group operations.


The static configuration has the point symmetry C_1 .


Analysis of symmetry for dynamics (positions and initial velocities):
=====================================================================
 Subroutine PRICEL returns:
 Original cell was already a primitive cell.
 

 Routine SETGRP: Setting up the symmetry group for a 
 simple orthorhombic supercell.


 Subroutine GETGRP returns: Found  1 space group operations
 (whereof  1 operations were pure point group operations)
 out of a pool of  8 trial point group operations.


The dynamic configuration has the point symmetry C_1 .


Analysis of magnetic symmetry:
=====================================================================

 Subroutine MAGSYM returns: Found  1 space group operations
 (whereof  1 operations were pure point group operations)
 out of a pool of  1 trial space group operations
 (whereof  1 operations were pure point group operations)
 and found also     1 'primitive' translations


The magnetic configuration has the point symmetry C_1 .


 irot  :   1
 --------------------------------------------------------------------
 isymop:   1   0   0
           0   1   0
           0   0   1

 gtrans:     0.0000000     0.0000000     0.0000000

 ptrans:     0.0000000     0.0000000     0.0000000
 rotmap:
 (   1->   1)  (   2->   2)  (   3->   3)  (   4->   4)  (   5->   5) 
 
 
 KPOINTS: K-Points                                

Automatic generation of k-mesh.
Space group operators:
 irot       det(A)        alpha          n_x          n_y          n_z        tau_x        tau_y        tau_z
    1     1.000000     0.000000     1.000000     0.000000     0.000000     0.000000     0.000000     0.000000
 
 Subroutine IBZKPT returns following result:
 ===========================================
 
 Found      9 irreducible k-points:
 
 Following reciprocal coordinates:
            Coordinates               Weight
  0.000000  0.000000  0.250000      2.000000
  0.333333  0.000000  0.250000      2.000000
 -0.333333  0.000000  0.250000      2.000000
  0.000000  0.333333  0.250000      2.000000
  0.333333  0.333333  0.250000      2.000000
 -0.333333  0.333333  0.250000      2.000000
  0.000000 -0.333333  0.250000      2.000000
  0.333333 -0.333333  0.250000      2.000000
 -0.333333 -0.333333  0.250000      2.000000
 
 Following cartesian coordinates:
            Coordinates               Weight
  0.000000  0.000000  0.016667      2.000000
  0.032808  0.000000  0.016667      2.000000
 -0.032808  0.000000  0.016667      2.000000
  0.000000  0.028345  0.016667      2.000000
  0.032808  0.028345  0.016667      2.000000
 -0.032808  0.028345  0.016667      2.000000
  0.000000 -0.028345  0.016667      2.000000
  0.032808 -0.028345  0.016667      2.000000
 -0.032808 -0.028345  0.016667      2.000000
 


--------------------------------------------------------------------------------------------------------




 Dimension of arrays:
   k-points           NKPTS =      9   k-points in BZ     NKDIM =      9   number of bands    NBANDS=     11
   number of dos      NEDOS =    301   number of ions     NIONS =      5
   non local maximal  LDIM  =      4   non local SUM 2l+1 LMDIM =      8
   total plane-waves  NPLWV = 301056
   max r-space proj   IRMAX =   1159   max aug-charges    IRDMAX=   2182
   dimension x,y,z NGX =    56 NGY =   64 NGZ =   84
   dimension x,y,z NGXF=   112 NGYF=  128 NGZF=  168
   support grid    NGXF=   112 NGYF=  128 NGZF=  168
   ions per type =               1   4
 NGX,Y,Z   is equivalent  to a cutoff of   9.16,  9.05,  9.31 a.u.
 NGXF,Y,Z  is equivalent  to a cutoff of  18.33, 18.09, 18.62 a.u.


 I would recommend the setting:
   dimension x,y,z NGX =    56 NGY =   64 NGZ =   82
 SYSTEM =  Beta12Borophene !The name of the system 
 POSCAR =  MoleculeAdsorption                      

 Startparameter for this run:
   NWRITE =      2    write-flag & timer
   PREC   = normal    normal or accurate (medium, high low for compatibility)
   ISTART =      0    job   : 0-new  1-cont  2-samecut
   ICHARG =      2    charge: 1-file 2-atom 10-const
   ISPIN  =      2    spin polarized calculation?
   LNONCOLLINEAR =      F non collinear calculations
   LSORBIT =      F    spin-orbit coupling
   INIWAV =      1    electr: 0-lowe 1-rand  2-diag
   LASPH  =      F    aspherical Exc in radial PAW
   METAGGA=      F    non-selfconsistent MetaGGA calc.

 Electronic Relaxation 1
   ENCUT  =  500.0 eV  36.75 Ry    6.06 a.u.  18.52 21.44 27.35*2*pi/ulx,y,z
   ENINI  =  500.0     initial cutoff
   ENAUG  =  644.9 eV  augmentation charge cutoff
   NELM   =     60;   NELMIN=  2; NELMDL= -5     # of ELM steps 
   EDIFF  = 0.1E-05   stopping-criterion for ELM
   LREAL  =      T    real-space projection
   NLSPLINE    = F    spline interpolate recip. space projectors
   LCOMPAT=      F    compatible to vasp.4.4
   GGA_COMPAT  = T    GGA compatible to vasp.4.4-vasp.4.6
   LMAXPAW     = -100 max onsite density
   LMAXMIX     =    2 max onsite mixed and CHGCAR
   VOSKOWN=      0    Vosko Wilk Nusair interpolation
   ROPT   =   -0.00050  -0.00050
 Ionic relaxation
   EDIFFG = -.1E-01   stopping-criterion for IOM
   NSW    =   1000    number of steps for IOM
   NBLOCK =      1;   KBLOCK =   1000    inner block; outer block 
   IBRION =      2    ionic relax: 0-MD 1-quasi-New 2-CG
   NFREE  =      1    steps in history (QN), initial steepest desc. (CG)
   ISIF   =      2    stress and relaxation
   IWAVPR =     11    prediction:  0-non 1-charg 2-wave 3-comb
   ISYM   =      2    0-nonsym 1-usesym 2-fastsym
   LCORR  =      T    Harris-Foulkes like correction to forces

   POTIM  = 0.5000    time-step for ionic-motion
   TEIN   =    0.0    initial temperature
   TEBEG  =    0.0;   TEEND  =   0.0 temperature during run
   SMASS  =  -3.00    Nose mass-parameter (am)
   estimated Nose-frequenzy (Omega)   =  0.10E-29 period in steps =****** mass=  -0.236E-26a.u.
   SCALEE = 1.0000    scale energy and forces
   NPACO  =    256;   APACO  = 16.0  distance and # of slots for P.C.
   PSTRESS=    0.0 pullay stress

  Mass of Ions in am
   POMASS =  12.01  1.00
  Ionic Valenz
   ZVAL   =   4.00  1.00
  Atomic Wigner-Seitz radii
   RWIGS  =  -1.00 -1.00
  virtual crystal weights 
   VCA    =   1.00  1.00
   NELECT =       8.0000    total number of electrons
   NUPDOWN=      -1.0000    fix difference up-down

 DOS related values:
   EMIN   =  10.00;   EMAX   =-10.00  energy-range for DOS
   EFERMI =   0.00
   ISMEAR =     1;   SIGMA  =   0.10  broadening in eV -4-tet -1-fermi 0-gaus

 Electronic relaxation 2 (details)
   IALGO  =     38    algorithm
   LDIAG  =      T    sub-space diagonalisation (order eigenvalues)
   LSUBROT=      T    optimize rotation matrix (better conditioning)
   TURBO    =      0    0=normal 1=particle mesh
   IRESTART =      0    0=no restart 2=restart with 2 vectors
   NREBOOT  =      0    no. of reboots
   NMIN     =      0    reboot dimension
   EREF     =   0.00    reference energy to select bands
   IMIX   =      4    mixing-type and parameters
     AMIX     =   0.40;   BMIX     =  1.00
     AMIX_MAG =   1.60;   BMIX_MAG =  1.00
     AMIN     =   0.10
     WC   =   100.;   INIMIX=   1;  MIXPRE=   1;  MAXMIX= -45

 Intra band minimization:
   WEIMIN = 0.0010     energy-eigenvalue tresh-hold
   EBREAK =  0.23E-07  absolut break condition
   DEPER  =   0.30     relativ break condition  

   TIME   =   0.40     timestep for ELM

  volume/ion in A,a.u.               =     358.44      2418.90
  Fermi-wavevector in a.u.,A,eV,Ry     =   0.269551  0.509377  0.988568  0.072658
  Thomas-Fermi vector in A             =   1.107068
 
 Write flags
   LWAVE  =      F    write WAVECAR
   LCHARG =      F    write CHGCAR
   LVTOT  =      F    write LOCPOT, total local potential
   LVHAR  =      F    write LOCPOT, Hartree potential only
   LELF   =      F    write electronic localiz. function (ELF)
   LORBIT =      0    0 simple, 1 ext, 2 COOP (PROOUT)


 Dipole corrections
   LMONO  =      F    monopole corrections only (constant potential shift)
   LDIPOL =      T    correct potential (dipole corrections)
   IDIPOL =      3    1-x, 2-y, 3-z, 4-all directions 
   EPSILON=  1.0000000 bulk dielectric constant

 Exchange correlation treatment:
   GGA     =    PE    GGA type
   LEXCH   =     8    internal setting for exchange type
   VOSKOWN=      0    Vosko Wilk Nusair interpolation
   LHFCALC =     F    Hartree Fock is set to
   LHFONE  =     F    Hartree Fock one center treatment
   AEXX    =    0.0000 exact exchange contribution

 Linear response parameters
   LEPSILON=     F    determine dielectric tensor
   LRPA    =     F    only Hartree local field effects (RPA)
   LNABLA  =     F    use nabla operator in PAW spheres
   LVEL    =     F    velocity operator in full k-point grid
   LINTERFAST=   F  fast interpolation
   KINTER  =     0    interpolate to denser k-point grid
   CSHIFT  =0.1000    complex shift for real part using Kramers Kronig
   OMEGAMAX=  -1.0    maximum frequency
   DEG_THRESHOLD= 0.2000000E-02 threshold for treating states as degnerate
   RTIME   =    0.100 relaxation time in fs

 Orbital magnetization related:
   ORBITALMAG=     F  switch on orbital magnetization
   LCHIMAG   =     F  perturbation theory with respect to B field
   DQ        =  0.001000  dq finite difference perturbation B field



--------------------------------------------------------------------------------------------------------


 conjugate gradient relaxation of ions
 charge density and potential will be updated during run
 spin polarized calculation
 Variant of blocked Davidson
 Davidson routine will perform the subspace rotation
 perform sub-space diagonalisation
    after iterative eigenvector-optimisation
 modified Broyden-mixing scheme, WC =      100.0
 initial mixing is a Kerker type mixing with AMIX =  0.4000 and BMIX =      1.0000
 Hartree-type preconditioning will be used
 using additional bands            7
 real space projection scheme for non local part
 use partial core corrections
 calculate Harris-corrections to forces 
   (improved forces if not selfconsistent)
 use gradient corrections 
 use of overlap-Matrix (Vanderbilt PP)
 Methfessel and Paxton  Order N= 1 SIGMA  =   0.10


--------------------------------------------------------------------------------------------------------


  energy-cutoff  :      500.00
  volume of cell :     1792.22
      direct lattice vectors                 reciprocal lattice vectors
    10.160000000  0.000000000  0.000000000     0.098425197  0.000000000  0.000000000
     0.000000000 11.760000000  0.000000000     0.000000000  0.085034014  0.000000000
     0.000000000  0.000000000 15.000000000     0.000000000  0.000000000  0.066666667

  length of vectors
    10.160000000 11.760000000 15.000000000     0.098425197  0.085034014  0.066666667


 
 k-points in units of 2pi/SCALE and weight: K-Points                                
   0.00000000  0.00000000  0.01666667       0.111
   0.03280840  0.00000000  0.01666667       0.111
  -0.03280840  0.00000000  0.01666667       0.111
   0.00000000  0.02834467  0.01666667       0.111
   0.03280840  0.02834467  0.01666667       0.111
  -0.03280840  0.02834467  0.01666667       0.111
   0.00000000 -0.02834467  0.01666667       0.111
   0.03280840 -0.02834467  0.01666667       0.111
  -0.03280840 -0.02834467  0.01666667       0.111
 
 k-points in reciprocal lattice and weights: K-Points                                
   0.00000000  0.00000000  0.25000000       0.111
   0.33333333  0.00000000  0.25000000       0.111
  -0.33333333  0.00000000  0.25000000       0.111
   0.00000000  0.33333333  0.25000000       0.111
   0.33333333  0.33333333  0.25000000       0.111
  -0.33333333  0.33333333  0.25000000       0.111
   0.00000000 -0.33333333  0.25000000       0.111
   0.33333333 -0.33333333  0.25000000       0.111
  -0.33333333 -0.33333333  0.25000000       0.111
 
 position of ions in fractional coordinates (direct lattice) 
   0.00000000  0.00000000  0.00000000
   0.10919000  0.00000000  0.00000000
   0.96360000  0.05232000  0.05639000
   0.96360000  0.91155000  0.00733000
   0.96360000  0.03613000  0.93628000
 
 position of ions in cartesian coordinates  (Angst):
   0.00000000  0.00000000  0.00000000
   1.10937040  0.00000000  0.00000000
   9.79017600  0.61528320  0.84585000
   9.79017600 10.71982800  0.10995000
   9.79017600  0.42488880 14.04420000
 


--------------------------------------------------------------------------------------------------------


 k-point  1 :   0.0000 0.0000 0.2500  plane waves:   45501
 k-point  2 :   0.3333 0.0000 0.2500  plane waves:   45508
 k-point  3 :  -0.3333 0.0000 0.2500  plane waves:   45508
 k-point  4 :   0.0000 0.3333 0.2500  plane waves:   45494
 k-point  5 :   0.3333 0.3333 0.2500  plane waves:   45490
 k-point  6 :  -0.3333 0.3333 0.2500  plane waves:   45490
 k-point  7 :   0.0000-0.3333 0.2500  plane waves:   45494
 k-point  8 :   0.3333-0.3333 0.2500  plane waves:   45490
 k-point  9 :  -0.3333-0.3333 0.2500  plane waves:   45490

 maximum and minimum number of plane-waves per node :     11425    11326

 maximum number of plane-waves:     45508
 maximum index in each direction: 
   IXMAX=   18   IYMAX=   21   IZMAX=   27
   IXMIN=  -18   IYMIN=  -21   IZMIN=  -27

 WARNING: aliasing errors must be expected set NGX to  74 to avoid them
 WARNING: aliasing errors must be expected set NGY to  86 to avoid them
 WARNING: aliasing errors must be expected set NGZ to 110 to avoid them
 aliasing errors are usually negligible using standard VASP settings
 and one can safely disregard these warnings

 real space projection operators:
  total allocation   :        213.05 KBytes
  max/ min on nodes  :         54.18         52.20


 parallel 3D FFT for wavefunctions:
    minimum data exchange during FFTs selected (reduces bandwidth)
 parallel 3D FFT for charge:
    minimum data exchange during FFTs selected (reduces bandwidth)


 total amount of memory used by VASP on root node   143666. kBytes
========================================================================

   base      :      30000. kBytes
   nonlr-proj:        159. kBytes
   fftplans  :      22744. kBytes
   grid      :      54677. kBytes
   one-center:         12. kBytes
   wavefun   :      36074. kBytes
 
 Broyden mixing: mesh for mixing (old mesh)
   NGX = 37   NGY = 43   NGZ = 55
  (NGX  =112   NGY  =128   NGZ  =168)
  gives a total of  87505 points

 initial charge density was supplied:
 charge density of overlapping atoms calculated
 number of electron       8.0000000 magnetization       5.0000000
 keeping initial charge density in first step


--------------------------------------------------------------------------------------------------------


 Maximum index for non-local projection operator          262
 Maximum index for augmentation-charges          459 (set IRDMAX)


--------------------------------------------------------------------------------------------------------


 First call to EWALD:  gamma=   0.146
 Maximum number of real-space cells 3x 3x 2
 Maximum number of reciprocal cells 2x 3x 3

 FEWALD executed in parallel
    FEWALD:  cpu time    0.00: real time    0.00


----------------------------------------- Iteration    1(   1)  ---------------------------------------


    POTLOK:  cpu time    1.33: real time    1.34
    SETDIJ:  cpu time    0.02: real time    0.02
     EDDAV:  cpu time    4.15: real time    4.17
       DOS:  cpu time    0.00: real time    0.00
    --------------------------------------------
      LOOP:  cpu time    5.51: real time    5.52

 eigenvalue-minimisations  :   396
 total energy-change (2. order) : 0.5616373E+02  (-0.1193920E+03)
 number of electron       8.0000000 magnetization       5.0000000
 augmentation part        8.0000000 magnetization       5.0000000

 DIPCOR: dipole corrections for dipol
 direction  3 min pos    86,
 dipolmoment           0.000000      0.000000      0.000005 electrons x Angstroem
 Tr[quadrupol]        -1.563238

 energy correction for charged system         0.000000 eV
 dipol+quadrupol energy correction           -0.000000 eV
 added-field ion interaction          0.000000 eV  (added to PSCEN)


 Free energy of the ion-electron system (eV)
  ---------------------------------------------------
  alpha Z        PSCENC =         0.13516807
  Ewald energy   TEWEN  =       152.84252707
  -1/2 Hartree   DENC   =      -268.64528960
  -exchange  EXHF       =         0.00000000
  -V(xc)+E(xc)   XCENC  =        23.49922024
  PAW double counting   =       115.57111737     -116.16515559
  entropy T*S    EENTRO =        -0.00040944
  eigenvalues    EBANDS =       -48.16759181
  atomic energy  EATOM  =       197.09414118
  ---------------------------------------------------
  free energy    TOTEN  =        56.16372747 eV

  energy without entropy =       56.16413691  energy(sigma->0) =       56.16386395


--------------------------------------------------------------------------------------------------------




----------------------------------------- Iteration    1(   2)  ---------------------------------------


     EDDAV:  cpu time    6.44: real time    6.44
       DOS:  cpu time    0.00: real time    0.00
    --------------------------------------------
      LOOP:  cpu time    6.44: real time    6.45

 eigenvalue-minimisations  :   683
 total energy-change (2. order) :-0.5962629E+02  (-0.5437710E+02)
 number of electron       8.0000000 magnetization       5.0000000
 augmentation part        8.0000000 magnetization       5.0000000

 DIPCOR: dipole corrections for dipol
 direction  3 min pos    86,
 dipolmoment           0.000000      0.000000      0.000005 electrons x Angstroem
 Tr[quadrupol]        -1.563238

 energy correction for charged system         0.000000 eV
 dipol+quadrupol energy correction           -0.000000 eV
 added-field ion interaction          0.000000 eV  (added to PSCEN)


 Free energy of the ion-electron system (eV)
  ---------------------------------------------------
  alpha Z        PSCENC =         0.13516807
  Ewald energy   TEWEN  =       152.84252707
  -1/2 Hartree   DENC   =      -268.64528960
  -exchange  EXHF       =         0.00000000
  -V(xc)+E(xc)   XCENC  =        23.49922024
  PAW double counting   =       115.57111737     -116.16515559
  entropy T*S    EENTRO =         0.00032211
  eigenvalues    EBANDS =      -107.79461617
  atomic energy  EATOM  =       197.09414118
  ---------------------------------------------------
  free energy    TOTEN  =        -3.46256534 eV

  energy without entropy =       -3.46288745  energy(sigma->0) =       -3.46267271


--------------------------------------------------------------------------------------------------------




----------------------------------------- Iteration    1(   3)  ---------------------------------------


     EDDAV:  cpu time    4.92: real time    4.92
       DOS:  cpu time    0.00: real time    0.00
    --------------------------------------------
      LOOP:  cpu time    4.92: real time    4.92

 eigenvalue-minimisations  :   492
 total energy-change (2. order) :-0.1535818E+02  (-0.1533094E+02)
 number of electron       8.0000000 magnetization       5.0000000
 augmentation part        8.0000000 magnetization       5.0000000

 DIPCOR: dipole corrections for dipol
 direction  3 min pos    86,
 dipolmoment           0.000000      0.000000      0.000005 electrons x Angstroem
 Tr[quadrupol]        -1.563238

 energy correction for charged system         0.000000 eV
 dipol+quadrupol energy correction           -0.000000 eV
 added-field ion interaction          0.000000 eV  (added to PSCEN)


 Free energy of the ion-electron system (eV)
  ---------------------------------------------------
  alpha Z        PSCENC =         0.13516807
  Ewald energy   TEWEN  =       152.84252707
  -1/2 Hartree   DENC   =      -268.64528960
  -exchange  EXHF       =         0.00000000
  -V(xc)+E(xc)   XCENC  =        23.49922024
  PAW double counting   =       115.57111737     -116.16515559
  entropy T*S    EENTRO =         0.00036093
  eigenvalues    EBANDS =      -123.15283493
  atomic energy  EATOM  =       197.09414118
  ---------------------------------------------------
  free energy    TOTEN  =       -18.82074528 eV

  energy without entropy =      -18.82110621  energy(sigma->0) =      -18.82086559


--------------------------------------------------------------------------------------------------------




----------------------------------------- Iteration    1(   4)  ---------------------------------------


     EDDAV:  cpu time    6.11: real time    6.11
       DOS:  cpu time    0.00: real time    0.00
    --------------------------------------------
      LOOP:  cpu time    6.11: real time    6.12

 eigenvalue-minimisations  :   633
 total energy-change (2. order) :-0.9804367E+00  (-0.9884446E+00)
 number of electron       8.0000000 magnetization       5.0000000
 augmentation part        8.0000000 magnetization       5.0000000

 DIPCOR: dipole corrections for dipol
 direction  3 min pos    86,
 dipolmoment           0.000000      0.000000      0.000005 electrons x Angstroem
 Tr[quadrupol]        -1.563238

 energy correction for charged system         0.000000 eV
 dipol+quadrupol energy correction           -0.000000 eV
 added-field ion interaction          0.000000 eV  (added to PSCEN)


 Free energy of the ion-electron system (eV)
  ---------------------------------------------------
  alpha Z        PSCENC =         0.13516807
  Ewald energy   TEWEN  =       152.84252707
  -1/2 Hartree   DENC   =      -268.64528960
  -exchange  EXHF       =         0.00000000
  -V(xc)+E(xc)   XCENC  =        23.49922024
  PAW double counting   =       115.57111737     -116.16515559
  entropy T*S    EENTRO =         0.00872468
  eigenvalues    EBANDS =      -124.14163537
  atomic energy  EATOM  =       197.09414118
  ---------------------------------------------------
  free energy    TOTEN  =       -19.80118196 eV

  energy without entropy =      -19.80990664  energy(sigma->0) =      -19.80409019


--------------------------------------------------------------------------------------------------------




----------------------------------------- Iteration    1(   5)  ---------------------------------------


     EDDAV:  cpu time    4.03: real time    4.03
       DOS:  cpu time    0.00: real time    0.00
    CHARGE:  cpu time    0.13: real time    0.13
    MIXING:  cpu time    0.01: real time    0.01
    --------------------------------------------
      LOOP:  cpu time    4.18: real time    4.18

 eigenvalue-minimisations  :   564
 total energy-change (2. order) :-0.1058453E-01  (-0.1055907E-01)
 number of electron       7.9999982 magnetization       3.8058483
 augmentation part        0.2246127 magnetization       3.8048592

 DIPCOR: dipole corrections for dipol
 direction  3 min pos    86,
 dipolmoment           0.000000      0.000000      0.000005 electrons x Angstroem
 Tr[quadrupol]        -1.563238

 energy correction for charged system         0.000000 eV
 dipol+quadrupol energy correction           -0.000000 eV
 added-field ion interaction          0.000000 eV  (added to PSCEN)


 Broyden mixing:
  rms(total) = 0.15153E+01    rms(broyden)= 0.15152E+01
  rms(prec ) = 0.16492E+01
  weight for this iteration     100.00

 Free energy of the ion-electron system (eV)
  ---------------------------------------------------
  alpha Z        PSCENC =         0.13516807
  Ewald energy   TEWEN  =       152.84252707
  -1/2 Hartree   DENC   =      -268.64528960
  -exchange  EXHF       =         0.00000000
  -V(xc)+E(xc)   XCENC  =        23.49922024
  PAW double counting   =       115.57111737     -116.16515559
  entropy T*S    EENTRO =         0.00869699
  eigenvalues    EBANDS =      -124.15219220
  atomic energy  EATOM  =       197.09414118
  ---------------------------------------------------
  free energy    TOTEN  =       -19.81176649 eV

  energy without entropy =      -19.82046348  energy(sigma->0) =      -19.81466549


--------------------------------------------------------------------------------------------------------




----------------------------------------- Iteration    1(   6)  ---------------------------------------


    POTLOK:  cpu time    0.82: real time    0.82
    SETDIJ:  cpu time    0.01: real time    0.01
     EDDAV:  cpu time    2.93: real time    2.93
       DOS:  cpu time    0.00: real time    0.00
    CHARGE:  cpu time    0.15: real time    0.15
    MIXING:  cpu time    0.02: real time    0.02
    --------------------------------------------
      LOOP:  cpu time    3.94: real time    3.94

 eigenvalue-minimisations  :   495
 total energy-change (2. order) : 0.1162263E+02  (-0.4165049E+01)
 number of electron       7.9999983 magnetization       2.9433900
 augmentation part        0.2064409 magnetization       2.9200442

 DIPCOR: dipole corrections for dipol
 direction  3 min pos    82,
 dipolmoment           0.000000      0.000000      0.001746 electrons x Angstroem
 Tr[quadrupol]        -1.687047

 energy correction for charged system         0.000000 eV
 dipol+quadrupol energy correction           -0.000000 eV
 added-field ion interaction         -0.000383 eV  (added to PSCEN)


 Broyden mixing:
  rms(total) = 0.66791E+00    rms(broyden)= 0.66776E+00
  rms(prec ) = 0.72572E+00
  weight for this iteration     100.00

 eigenvalues of (default mixing * dielectric matrix)
  average eigenvalue GAMMA=   0.8712
  0.8712

 Free energy of the ion-electron system (eV)
  ---------------------------------------------------
  alpha Z        PSCENC =         0.13478427
  Ewald energy   TEWEN  =       152.84252707
  -1/2 Hartree   DENC   =      -289.93852308
  -exchange  EXHF       =         0.00000000
  -V(xc)+E(xc)   XCENC  =        36.75297281
  PAW double counting   =       236.78762391     -237.58554486
  entropy T*S    EENTRO =         0.00871527
  eigenvalues    EBANDS =      -104.28583175
  atomic energy  EATOM  =       197.09414118
  ---------------------------------------------------
  free energy    TOTEN  =        -8.18913519 eV

  energy without entropy =       -8.19785046  energy(sigma->0) =       -8.19204028


--------------------------------------------------------------------------------------------------------




----------------------------------------- Iteration    1(   7)  ---------------------------------------


    POTLOK:  cpu time    0.80: real time    0.80
    SETDIJ:  cpu time    0.01: real time    0.01
     EDDAV:  cpu time    2.92: real time    2.92
       DOS:  cpu time    0.00: real time    0.00
    CHARGE:  cpu time    0.13: real time    0.13
    MIXING:  cpu time    0.02: real time    0.02
    --------------------------------------------
      LOOP:  cpu time    3.87: real time    3.88

 eigenvalue-minimisations  :   496
 total energy-change (2. order) :-0.1008769E+02  (-0.8373170E+00)
 number of electron       7.9999985 magnetization       2.1496537
 augmentation part        0.1914814 magnetization       2.1371633

 DIPCOR: dipole corrections for dipol
 direction  3 min pos    81,
 dipolmoment           0.000000      0.000000      0.003135 electrons x Angstroem
 Tr[quadrupol]        -1.770249

 energy correction for charged system         0.000000 eV
 dipol+quadrupol energy correction           -0.000001 eV
 added-field ion interaction         -0.000918 eV  (added to PSCEN)


 Broyden mixing:
  rms(total) = 0.39224E+00    rms(broyden)= 0.39221E+00
  rms(prec ) = 0.42052E+00
  weight for this iteration     100.00

 eigenvalues of (default mixing * dielectric matrix)
  average eigenvalue GAMMA=   0.9014
  0.9014  0.9014

 Free energy of the ion-electron system (eV)
  ---------------------------------------------------
  alpha Z        PSCENC =         0.13424962
  Ewald energy   TEWEN  =       152.84252707
  -1/2 Hartree   DENC   =      -298.69192523
  -exchange  EXHF       =         0.00000000
  -V(xc)+E(xc)   XCENC  =        28.92393882
  PAW double counting   =       327.82745809     -328.65797913
  entropy T*S    EENTRO =         0.00869996
  eigenvalues    EBANDS =       -97.75793488
  atomic energy  EATOM  =       197.09414118
  ---------------------------------------------------
  free energy    TOTEN  =       -18.27682450 eV

  energy without entropy =      -18.28552446  energy(sigma->0) =      -18.27972448


--------------------------------------------------------------------------------------------------------




----------------------------------------- Iteration    1(   8)  ---------------------------------------


    POTLOK:  cpu time    0.82: real time    0.82
    SETDIJ:  cpu time    0.01: real time    0.01
     EDDAV:  cpu time    2.85: real time    2.85
       DOS:  cpu time    0.00: real time    0.00
    CHARGE:  cpu time    0.12: real time    0.12
    MIXING:  cpu time    0.02: real time    0.02
    --------------------------------------------
      LOOP:  cpu time    3.82: real time    3.83

 eigenvalue-minimisations  :   496
 total energy-change (2. order) :-0.1866435E+01  (-0.6190378E-01)
 number of electron       7.9999985 magnetization       1.2681636
 augmentation part        0.1890594 magnetization       1.2602399

 DIPCOR: dipole corrections for dipol
 direction  3 min pos    81,
 dipolmoment           0.000000      0.000000      0.003040 electrons x Angstroem
 Tr[quadrupol]        -1.846543

 energy correction for charged system         0.000000 eV
 dipol+quadrupol energy correction           -0.000000 eV
 added-field ion interaction         -0.000890 eV  (added to PSCEN)


 Broyden mixing:
  rms(total) = 0.23882E+00    rms(broyden)= 0.23881E+00
  rms(prec ) = 0.25546E+00
  weight for this iteration     100.00

 eigenvalues of (default mixing * dielectric matrix)
  average eigenvalue GAMMA=   1.1644
  1.8036  1.0470  0.6425

 Free energy of the ion-electron system (eV)
  ---------------------------------------------------
  alpha Z        PSCENC =         0.13427760
  Ewald energy   TEWEN  =       152.84252707
  -1/2 Hartree   DENC   =      -302.46763499
  -exchange  EXHF       =         0.00000000
  -V(xc)+E(xc)   XCENC  =        27.51702317
  PAW double counting   =       396.03834632     -396.84633281
  entropy T*S    EENTRO =         0.00870567
  eigenvalues    EBANDS =       -94.46431313
  atomic energy  EATOM  =       197.09414118
  ---------------------------------------------------
  free energy    TOTEN  =       -20.14325992 eV

  energy without entropy =      -20.15196559  energy(sigma->0) =      -20.14616181


--------------------------------------------------------------------------------------------------------




----------------------------------------- Iteration    1(   9)  ---------------------------------------


    POTLOK:  cpu time    0.81: real time    0.81
    SETDIJ:  cpu time    0.01: real time    0.01
     EDDAV:  cpu time    2.63: real time    2.63
       DOS:  cpu time    0.00: real time    0.00
    CHARGE:  cpu time    0.12: real time    0.12
    MIXING:  cpu time    0.02: real time    0.02
    --------------------------------------------
      LOOP:  cpu time    3.60: real time    3.60

 eigenvalue-minimisations  :   454
 total energy-change (2. order) :-0.2676347E+01  (-0.1155578E+00)
 number of electron       7.9999985 magnetization       1.0344373
 augmentation part        0.1857763 magnetization       0.8297762

 DIPCOR: dipole corrections for dipol
 direction  3 min pos    83,
 dipolmoment           0.000000      0.000000      0.001242 electrons x Angstroem
 Tr[quadrupol]        -1.944773

 energy correction for charged system         0.000000 eV
 dipol+quadrupol energy correction           -0.000000 eV
 added-field ion interaction         -0.000182 eV  (added to PSCEN)


 Broyden mixing:
  rms(total) = 0.90873E-01    rms(broyden)= 0.90861E-01
  rms(prec ) = 0.95982E-01
  weight for this iteration     100.00

 eigenvalues of (default mixing * dielectric matrix)
  average eigenvalue GAMMA=   1.1367
  1.6012  1.6012  0.6722  0.6722

 Free energy of the ion-electron system (eV)
  ---------------------------------------------------
  alpha Z        PSCENC =         0.13498592
  Ewald energy   TEWEN  =       152.84252707
  -1/2 Hartree   DENC   =      -306.19270003
  -exchange  EXHF       =         0.00000000
  -V(xc)+E(xc)   XCENC  =        25.55992429
  PAW double counting   =       457.41554301     -458.20695349
  entropy T*S    EENTRO =         0.01926639
  eigenvalues    EBANDS =       -91.48634169
  atomic energy  EATOM  =       197.09414118
  ---------------------------------------------------
  free energy    TOTEN  =       -22.81960734 eV

  energy without entropy =      -22.83887374  energy(sigma->0) =      -22.82602948


--------------------------------------------------------------------------------------------------------




----------------------------------------- Iteration    1(  10)  ---------------------------------------


    POTLOK:  cpu time    0.79: real time    0.79
    SETDIJ:  cpu time    0.01: real time    0.01
     EDDAV:  cpu time    3.06: real time    3.06
       DOS:  cpu time    0.00: real time    0.00
    CHARGE:  cpu time    0.12: real time    0.12
    MIXING:  cpu time    0.02: real time    0.02
    --------------------------------------------
      LOOP:  cpu time    4.00: real time    4.01

 eigenvalue-minimisations  :   543
 total energy-change (2. order) :-0.5991388E+00  (-0.1753744E-01)
 number of electron       7.9999985 magnetization       0.7686937
 augmentation part        0.1845304 magnetization       0.7583294

 DIPCOR: dipole corrections for dipol
 direction  3 min pos    84,
 dipolmoment           0.000000      0.000000      0.000548 electrons x Angstroem
 Tr[quadrupol]        -1.988703

 energy correction for charged system         0.000000 eV
 dipol+quadrupol energy correction           -0.000000 eV
 added-field ion interaction         -0.000040 eV  (added to PSCEN)


 Broyden mixing:
  rms(total) = 0.65803E-01    rms(broyden)= 0.65801E-01
  rms(prec ) = 0.69957E-01
  weight for this iteration     100.00

 eigenvalues of (default mixing * dielectric matrix)
  average eigenvalue GAMMA=   1.0262
  1.8858  1.3577  0.8155  0.6571  0.4147

 Free energy of the ion-electron system (eV)
  ---------------------------------------------------
  alpha Z        PSCENC =         0.13512755
  Ewald energy   TEWEN  =       152.84252707
  -1/2 Hartree   DENC   =      -306.64115779
  -exchange  EXHF       =         0.00000000
  -V(xc)+E(xc)   XCENC  =        25.09492678
  PAW double counting   =       458.21500983     -459.00353211
  entropy T*S    EENTRO =         0.00954619
  eigenvalues    EBANDS =       -91.16533486
  atomic energy  EATOM  =       197.09414118
  ---------------------------------------------------
  free energy    TOTEN  =       -23.41874616 eV

  energy without entropy =      -23.42829236  energy(sigma->0) =      -23.42192823


--------------------------------------------------------------------------------------------------------




----------------------------------------- Iteration    1(  11)  ---------------------------------------


    POTLOK:  cpu time    0.79: real time    0.79
    SETDIJ:  cpu time    0.01: real time    0.01
     EDDAV:  cpu time    2.63: real time    2.63
       DOS:  cpu time    0.00: real time    0.00
    CHARGE:  cpu time    0.13: real time    0.13
    MIXING:  cpu time    0.02: real time    0.02
    --------------------------------------------
      LOOP:  cpu time    3.58: real time    3.58

 eigenvalue-minimisations  :   448
 total energy-change (2. order) :-0.1611479E+00  (-0.1127817E-02)
 number of electron       7.9999985 magnetization       0.4610427
 augmentation part        0.1843159 magnetization       0.3430449

 DIPCOR: dipole corrections for dipol
 direction  3 min pos    85,
 dipolmoment           0.000000      0.000000      0.000133 electrons x Angstroem
 Tr[quadrupol]        -2.035815

 energy correction for charged system         0.000000 eV
 dipol+quadrupol energy correction           -0.000000 eV
 added-field ion interaction         -0.000000 eV  (added to PSCEN)


 Broyden mixing:
  rms(total) = 0.37712E-01    rms(broyden)= 0.37709E-01
  rms(prec ) = 0.42120E-01
  weight for this iteration     100.00

 eigenvalues of (default mixing * dielectric matrix)
  average eigenvalue GAMMA=   1.0644
  1.7563  1.7563  0.9004  0.9004  0.6119  0.4611

 Free energy of the ion-electron system (eV)
  ---------------------------------------------------
  alpha Z        PSCENC =         0.13516770
  Ewald energy   TEWEN  =       152.84252707
  -1/2 Hartree   DENC   =      -307.16293964
  -exchange  EXHF       =         0.00000000
  -V(xc)+E(xc)   XCENC  =        24.97692909
  PAW double counting   =       458.52276693     -459.30989039
  entropy T*S    EENTRO =         0.01588741
  eigenvalues    EBANDS =       -90.69448341
  atomic energy  EATOM  =       197.09414118
  ---------------------------------------------------
  free energy    TOTEN  =       -23.57989405 eV

  energy without entropy =      -23.59578147  energy(sigma->0) =      -23.58518986


--------------------------------------------------------------------------------------------------------




----------------------------------------- Iteration    1(  12)  ---------------------------------------


    POTLOK:  cpu time    0.81: real time    0.81
    SETDIJ:  cpu time    0.01: real time    0.01
     EDDAV:  cpu time    2.50: real time    2.50
       DOS:  cpu time    0.00: real time    0.00
    CHARGE:  cpu time    0.12: real time    0.12
    MIXING:  cpu time    0.02: real time    0.02
    --------------------------------------------
      LOOP:  cpu time    3.46: real time    3.47

 eigenvalue-minimisations  :   419
 total energy-change (2. order) :-0.1395541E+00  (-0.2061700E-02)
 number of electron       7.9999985 magnetization       0.4231218
 augmentation part        0.1842959 magnetization       0.3072820

 DIPCOR: dipole corrections for dipol
 direction  3 min pos    85,
 dipolmoment           0.000000      0.000000     -0.000211 electrons x Angstroem
 Tr[quadrupol]        -2.110804

 energy correction for charged system         0.000000 eV
 dipol+quadrupol energy correction           -0.000000 eV
 added-field ion interaction          0.000000 eV  (added to PSCEN)


 Broyden mixing:
  rms(total) = 0.37898E-01    rms(broyden)= 0.37877E-01
  rms(prec ) = 0.43512E-01
  weight for this iteration     100.00

 eigenvalues of (default mixing * dielectric matrix)
  average eigenvalue GAMMA=   0.9886
  1.7662  1.7662  0.8938  0.8938  0.5716  0.5716  0.4569

 Free energy of the ion-electron system (eV)
  ---------------------------------------------------
  alpha Z        PSCENC =         0.13516770
  Ewald energy   TEWEN  =       152.84252707
  -1/2 Hartree   DENC   =      -307.52476699
  -exchange  EXHF       =         0.00000000
  -V(xc)+E(xc)   XCENC  =        24.86273970
  PAW double counting   =       451.42525684     -452.21107787
  entropy T*S    EENTRO =         0.01654117
  eigenvalues    EBANDS =       -90.35997695
  atomic energy  EATOM  =       197.09414118
  ---------------------------------------------------
  free energy    TOTEN  =       -23.71944816 eV

  energy without entropy =      -23.73598933  energy(sigma->0) =      -23.72496188


--------------------------------------------------------------------------------------------------------




----------------------------------------- Iteration    1(  13)  ---------------------------------------


    POTLOK:  cpu time    0.80: real time    0.80
    SETDIJ:  cpu time    0.01: real time    0.01
     EDDAV:  cpu time    3.00: real time    3.00
       DOS:  cpu time    0.00: real time    0.00
    CHARGE:  cpu time    0.13: real time    0.13
    MIXING:  cpu time    0.02: real time    0.02
    --------------------------------------------
      LOOP:  cpu time    3.96: real time    3.96

 eigenvalue-minimisations  :   532
 total energy-change (2. order) :-0.1515242E-01  (-0.1421183E-03)
 number of electron       7.9999985 magnetization       0.3573276
 augmentation part        0.1841435 magnetization       0.2357782

 DIPCOR: dipole corrections for dipol
 direction  3 min pos    85,
 dipolmoment           0.000000      0.000000     -0.000526 electrons x Angstroem
 Tr[quadrupol]        -2.125272

 energy correction for charged system         0.000000 eV
 dipol+quadrupol energy correction           -0.000000 eV
 added-field ion interaction         -0.000000 eV  (added to PSCEN)


 Broyden mixing:
  rms(total) = 0.33704E-01    rms(broyden)= 0.33701E-01
  rms(prec ) = 0.38996E-01
  weight for this iteration     100.00

 eigenvalues of (default mixing * dielectric matrix)
  average eigenvalue GAMMA=   0.9809
  1.9191  1.9191  0.9493  0.9493  0.6233  0.4382  0.5243  0.5243

 Free energy of the ion-electron system (eV)
  ---------------------------------------------------
  alpha Z        PSCENC =         0.13516768
  Ewald energy   TEWEN  =       152.84252707
  -1/2 Hartree   DENC   =      -307.60616014
  -exchange  EXHF       =         0.00000000
  -V(xc)+E(xc)   XCENC  =        24.85489979
  PAW double counting   =       450.99825622     -451.78412593
  entropy T*S    EENTRO =         0.01645510
  eigenvalues    EBANDS =       -90.28576156
  atomic energy  EATOM  =       197.09414118
  ---------------------------------------------------
  free energy    TOTEN  =       -23.73460058 eV

  energy without entropy =      -23.75105568  energy(sigma->0) =      -23.74008561


--------------------------------------------------------------------------------------------------------




----------------------------------------- Iteration    1(  14)  ---------------------------------------


    POTLOK:  cpu time    0.80: real time    0.80
    SETDIJ:  cpu time    0.01: real time    0.01
     EDDAV:  cpu time    2.41: real time    2.41
       DOS:  cpu time    0.00: real time    0.00
    CHARGE:  cpu time    0.12: real time    0.13
    MIXING:  cpu time    0.03: real time    0.03
    --------------------------------------------
      LOOP:  cpu time    3.37: real time    3.38

 eigenvalue-minimisations  :   396
 total energy-change (2. order) :-0.2142780E-01  (-0.1027972E-02)
 number of electron       7.9999985 magnetization       0.1792537
 augmentation part        0.1841682 magnetization       0.0592136

 DIPCOR: dipole corrections for dipol
 direction  3 min pos    85,
 dipolmoment           0.000000      0.000000     -0.000189 electrons x Angstroem
 Tr[quadrupol]        -2.148916

 energy correction for charged system         0.000000 eV
 dipol+quadrupol energy correction           -0.000000 eV
 added-field ion interaction          0.000000 eV  (added to PSCEN)


 Broyden mixing:
  rms(total) = 0.27440E-01    rms(broyden)= 0.27413E-01
  rms(prec ) = 0.30580E-01
  weight for this iteration     100.00

 eigenvalues of (default mixing * dielectric matrix)
  average eigenvalue GAMMA=   1.0939
  2.8529  2.0635  1.2936  0.8024  0.8024  0.5927  0.4691  0.4842  0.4842

 Free energy of the ion-electron system (eV)
  ---------------------------------------------------
  alpha Z        PSCENC =         0.13516770
  Ewald energy   TEWEN  =       152.84252707
  -1/2 Hartree   DENC   =      -307.68636921
  -exchange  EXHF       =         0.00000000
  -V(xc)+E(xc)   XCENC  =        24.83776724
  PAW double counting   =       449.43993538     -450.22554206
  entropy T*S    EENTRO =         0.01601409
  eigenvalues    EBANDS =       -90.20966976
  atomic energy  EATOM  =       197.09414118
  ---------------------------------------------------
  free energy    TOTEN  =       -23.75602838 eV

  energy without entropy =      -23.77204246  energy(sigma->0) =      -23.76136641


--------------------------------------------------------------------------------------------------------




----------------------------------------- Iteration    1(  15)  ---------------------------------------


    POTLOK:  cpu time    0.80: real time    0.80
    SETDIJ:  cpu time    0.01: real time    0.01
     EDDAV:  cpu time    2.82: real time    2.82
       DOS:  cpu time    0.00: real time    0.00
    CHARGE:  cpu time    0.12: real time    0.12
    MIXING:  cpu time    0.03: real time    0.03
    --------------------------------------------
      LOOP:  cpu time    3.77: real time    3.78

 eigenvalue-minimisations  :   492
 total energy-change (2. order) :-0.1824314E+00  (-0.1597473E-02)
 number of electron       7.9999985 magnetization       0.1620849
 augmentation part        0.1839318 magnetization       0.0212392

 DIPCOR: dipole corrections for dipol
 direction  3 min pos    85,
 dipolmoment           0.000000      0.000000      0.000356 electrons x Angstroem
 Tr[quadrupol]        -2.205534

 energy correction for charged system         0.000000 eV
 dipol+quadrupol energy correction           -0.000000 eV
 added-field ion interaction          0.000000 eV  (added to PSCEN)


 Broyden mixing:
  rms(total) = 0.19204E-01    rms(broyden)= 0.19194E-01
  rms(prec ) = 0.21109E-01
  weight for this iteration     100.00

 eigenvalues of (default mixing * dielectric matrix)
  average eigenvalue GAMMA=   1.0743
  3.0944  2.1145  1.2482  0.8692  0.7785  0.6252  0.6252  0.4368  0.4753  0.4753

 Free energy of the ion-electron system (eV)
  ---------------------------------------------------
  alpha Z        PSCENC =         0.13516769
  Ewald energy   TEWEN  =       152.84252707
  -1/2 Hartree   DENC   =      -308.04948357
  -exchange  EXHF       =         0.00000000
  -V(xc)+E(xc)   XCENC  =        24.67898196
  PAW double counting   =       447.41006151     -448.19572767
  entropy T*S    EENTRO =         0.01704301
  eigenvalues    EBANDS =       -89.87117099
  atomic energy  EATOM  =       197.09414118
  ---------------------------------------------------
  free energy    TOTEN  =       -23.93845981 eV

  energy without entropy =      -23.95550282  energy(sigma->0) =      -23.94414081


--------------------------------------------------------------------------------------------------------




----------------------------------------- Iteration    1(  16)  ---------------------------------------


    POTLOK:  cpu time    0.80: real time    0.80
    SETDIJ:  cpu time    0.01: real time    0.01
     EDDAV:  cpu time    2.70: real time    2.70
       DOS:  cpu time    0.00: real time    0.00
    CHARGE:  cpu time    0.12: real time    0.12
    MIXING:  cpu time    0.03: real time    0.03
    --------------------------------------------
      LOOP:  cpu time    3.66: real time    3.66

 eigenvalue-minimisations  :   463
 total energy-change (2. order) :-0.2933358E-01  (-0.2331057E-03)
 number of electron       7.9999985 magnetization       0.1541387
 augmentation part        0.1838883 magnetization       0.0365942

 DIPCOR: dipole corrections for dipol
 direction  3 min pos    85,
 dipolmoment           0.000000      0.000000      0.000091 electrons x Angstroem
 Tr[quadrupol]        -2.225796

 energy correction for charged system         0.000000 eV
 dipol+quadrupol energy correction           -0.000000 eV
 added-field ion interaction         -0.000000 eV  (added to PSCEN)


 Broyden mixing:
  rms(total) = 0.19010E-01    rms(broyden)= 0.19002E-01
  rms(prec ) = 0.21630E-01
  weight for this iteration     100.00

 eigenvalues of (default mixing * dielectric matrix)
  average eigenvalue GAMMA=   0.9937
  3.1535  2.0916  1.2681  0.4819  0.4819  0.8457  0.7846  0.5564  0.5564  0.3551
  0.3551

 Free energy of the ion-electron system (eV)
  ---------------------------------------------------
  alpha Z        PSCENC =         0.13516770
  Ewald energy   TEWEN  =       152.84252707
  -1/2 Hartree   DENC   =      -308.08246939
  -exchange  EXHF       =         0.00000000
  -V(xc)+E(xc)   XCENC  =        24.65233643
  PAW double counting   =       446.86071465     -447.64640577
  entropy T*S    EENTRO =         0.01610601
  eigenvalues    EBANDS =       -89.83991127
  atomic energy  EATOM  =       197.09414118
  ---------------------------------------------------
  free energy    TOTEN  =       -23.96779339 eV

  energy without entropy =      -23.98389939  energy(sigma->0) =      -23.97316206


--------------------------------------------------------------------------------------------------------




----------------------------------------- Iteration    1(  17)  ---------------------------------------


    POTLOK:  cpu time    0.81: real time    0.81
    SETDIJ:  cpu time    0.01: real time    0.01
     EDDAV:  cpu time    2.98: real time    2.98
       DOS:  cpu time    0.00: real time    0.00
    CHARGE:  cpu time    0.12: real time    0.12
    MIXING:  cpu time    0.03: real time    0.03
    --------------------------------------------
      LOOP:  cpu time    3.95: real time    3.96

 eigenvalue-minimisations  :   530
 total energy-change (2. order) :-0.4401422E-02  (-0.5575205E-04)
 number of electron       7.9999985 magnetization       0.1396839
 augmentation part        0.1838627 magnetization       0.0190449

 DIPCOR: dipole corrections for dipol
 direction  3 min pos    85,
 dipolmoment           0.000000      0.000000     -0.000114 electrons x Angstroem
 Tr[quadrupol]        -2.231633

 energy correction for charged system         0.000000 eV
 dipol+quadrupol energy correction           -0.000000 eV
 added-field ion interaction          0.000000 eV  (added to PSCEN)


 Broyden mixing:
  rms(total) = 0.19353E-01    rms(broyden)= 0.19351E-01
  rms(prec ) = 0.22003E-01
  weight for this iteration     100.00

 eigenvalues of (default mixing * dielectric matrix)
  average eigenvalue GAMMA=   1.0267
  3.4364  2.1163  1.1904  1.0706  0.7912  0.7085  0.6284  0.4469  0.4980  0.4980
  0.4680  0.4680

 Free energy of the ion-electron system (eV)
  ---------------------------------------------------
  alpha Z        PSCENC =         0.13516770
  Ewald energy   TEWEN  =       152.84252707
  -1/2 Hartree   DENC   =      -308.10047608
  -exchange  EXHF       =         0.00000000
  -V(xc)+E(xc)   XCENC  =        24.64857338
  PAW double counting   =       446.79339906     -447.57909197
  entropy T*S    EENTRO =         0.01629323
  eigenvalues    EBANDS =       -89.82272838
  atomic energy  EATOM  =       197.09414118
  ---------------------------------------------------
  free energy    TOTEN  =       -23.97219481 eV

  energy without entropy =      -23.98848804  energy(sigma->0) =      -23.97762588


--------------------------------------------------------------------------------------------------------




----------------------------------------- Iteration    1(  18)  ---------------------------------------


    POTLOK:  cpu time    0.80: real time    0.80
    SETDIJ:  cpu time    0.01: real time    0.01
     EDDAV:  cpu time    2.51: real time    2.51
       DOS:  cpu time    0.00: real time    0.00
    CHARGE:  cpu time    0.13: real time    0.13
    MIXING:  cpu time    0.04: real time    0.04
    --------------------------------------------
      LOOP:  cpu time    3.48: real time    3.48

 eigenvalue-minimisations  :   419
 total energy-change (2. order) :-0.1578862E-01  (-0.1869836E-03)
 number of electron       7.9999985 magnetization       0.1183391
 augmentation part        0.1838347 magnetization       0.0123006

 DIPCOR: dipole corrections for dipol
 direction  3 min pos    85,
 dipolmoment           0.000000      0.000000      0.000081 electrons x Angstroem
 Tr[quadrupol]        -2.248090

 energy correction for charged system         0.000000 eV
 dipol+quadrupol energy correction           -0.000000 eV
 added-field ion interaction          0.000000 eV  (added to PSCEN)


 Broyden mixing:
  rms(total) = 0.60488E-02    rms(broyden)= 0.60155E-02
  rms(prec ) = 0.85320E-02
  weight for this iteration     100.00

 eigenvalues of (default mixing * dielectric matrix)
  average eigenvalue GAMMA=   1.0278
  3.6055  2.0672  1.3391  1.0133  0.8561  0.8561  0.6535  0.6535  0.4461  0.4821
  0.4821  0.4531  0.4531

 Free energy of the ion-electron system (eV)
  ---------------------------------------------------
  alpha Z        PSCENC =         0.13516770
  Ewald energy   TEWEN  =       152.84252707
  -1/2 Hartree   DENC   =      -308.13674959
  -exchange  EXHF       =         0.00000000
  -V(xc)+E(xc)   XCENC  =        24.63494743
  PAW double counting   =       446.50377856     -447.28947186
  entropy T*S    EENTRO =         0.01545987
  eigenvalues    EBANDS =       -89.78778379
  atomic energy  EATOM  =       197.09414118
  ---------------------------------------------------
  free energy    TOTEN  =       -23.98798343 eV

  energy without entropy =      -24.00344330  energy(sigma->0) =      -23.99313672


--------------------------------------------------------------------------------------------------------




----------------------------------------- Iteration    1(  19)  ---------------------------------------


    POTLOK:  cpu time    0.80: real time    0.80
    SETDIJ:  cpu time    0.01: real time    0.01
     EDDAV:  cpu time    2.49: real time    2.49
       DOS:  cpu time    0.00: real time    0.00
    CHARGE:  cpu time    0.12: real time    0.12
    MIXING:  cpu time    0.03: real time    0.03
    --------------------------------------------
      LOOP:  cpu time    3.46: real time    3.46

 eigenvalue-minimisations  :   414
 total energy-change (2. order) :-0.1654947E-01  (-0.4846914E-04)
 number of electron       7.9999985 magnetization       0.1149342
 augmentation part        0.1837888 magnetization      -0.0016105

 DIPCOR: dipole corrections for dipol
 direction  3 min pos    85,
 dipolmoment           0.000000      0.000000      0.000012 electrons x Angstroem
 Tr[quadrupol]        -2.291659

 energy correction for charged system         0.000000 eV
 dipol+quadrupol energy correction           -0.000000 eV
 added-field ion interaction          0.000000 eV  (added to PSCEN)


 Broyden mixing:
  rms(total) = 0.96369E-02    rms(broyden)= 0.96315E-02
  rms(prec ) = 0.11382E-01
  weight for this iteration     100.00

 eigenvalues of (default mixing * dielectric matrix)
  average eigenvalue GAMMA=   0.9845
  3.6252  2.0846  1.2813  1.0851  0.4718  0.4718  0.4752  0.4752  0.7833  0.7833
  0.6376  0.6376  0.5260  0.4449

 Free energy of the ion-electron system (eV)
  ---------------------------------------------------
  alpha Z        PSCENC =         0.13516770
  Ewald energy   TEWEN  =       152.84252707
  -1/2 Hartree   DENC   =      -308.21852286
  -exchange  EXHF       =         0.00000000
  -V(xc)+E(xc)   XCENC  =        24.61985850
  PAW double counting   =       446.57667543     -447.36251054
  entropy T*S    EENTRO =         0.01599107
  eigenvalues    EBANDS =       -89.70786043
  atomic energy  EATOM  =       197.09414118
  ---------------------------------------------------
  free energy    TOTEN  =       -24.00453289 eV

  energy without entropy =      -24.02052396  energy(sigma->0) =      -24.00986325


--------------------------------------------------------------------------------------------------------




----------------------------------------- Iteration    1(  20)  ---------------------------------------


    POTLOK:  cpu time    0.80: real time    0.80
    SETDIJ:  cpu time    0.01: real time    0.01
     EDDAV:  cpu time    2.80: real time    2.80
       DOS:  cpu time    0.00: real time    0.00
    CHARGE:  cpu time    0.12: real time    0.12
    MIXING:  cpu time    0.04: real time    0.04
    --------------------------------------------
      LOOP:  cpu time    3.77: real time    3.78

 eigenvalue-minimisations  :   490
 total energy-change (2. order) :-0.1747351E-02  (-0.5769629E-04)
 number of electron       7.9999985 magnetization       0.1091294
 augmentation part        0.1837641 magnetization      -0.0032791

 DIPCOR: dipole corrections for dipol
 direction  3 min pos    85,
 dipolmoment           0.000000      0.000000      0.000168 electrons x Angstroem
 Tr[quadrupol]        -2.307903

 energy correction for charged system         0.000000 eV
 dipol+quadrupol energy correction           -0.000000 eV
 added-field ion interaction          0.000000 eV  (added to PSCEN)


 Broyden mixing:
  rms(total) = 0.11970E-01    rms(broyden)= 0.11967E-01
  rms(prec ) = 0.13727E-01
  weight for this iteration     100.00

 eigenvalues of (default mixing * dielectric matrix)
  average eigenvalue GAMMA=   0.9689
  3.6836  2.0679  1.3802  1.1070  0.8657  0.8657  0.6503  0.6503  0.4458  0.4852
  0.4852  0.4561  0.4561  0.4675  0.4675

 Free energy of the ion-electron system (eV)
  ---------------------------------------------------
  alpha Z        PSCENC =         0.13516770
  Ewald energy   TEWEN  =       152.84252707
  -1/2 Hartree   DENC   =      -308.23853065
  -exchange  EXHF       =         0.00000000
  -V(xc)+E(xc)   XCENC  =        24.61795834
  PAW double counting   =       446.58297527     -447.36878688
  entropy T*S    EENTRO =         0.01582781
  eigenvalues    EBANDS =       -89.68756008
  atomic energy  EATOM  =       197.09414118
  ---------------------------------------------------
  free energy    TOTEN  =       -24.00628024 eV

  energy without entropy =      -24.02210805  energy(sigma->0) =      -24.01155618


--------------------------------------------------------------------------------------------------------




----------------------------------------- Iteration    1(  21)  ---------------------------------------


    POTLOK:  cpu time    0.81: real time    0.81
    SETDIJ:  cpu time    0.01: real time    0.01
     EDDAV:  cpu time    2.66: real time    2.66
       DOS:  cpu time    0.00: real time    0.00
    CHARGE:  cpu time    0.18: real time    0.18
    MIXING:  cpu time    0.06: real time    0.06
    --------------------------------------------
      LOOP:  cpu time    3.71: real time    3.72

 eigenvalue-minimisations  :   444
 total energy-change (2. order) :-0.7349784E-03  (-0.5435669E-04)
 number of electron       7.9999985 magnetization       0.1047534
 augmentation part        0.1837568 magnetization      -0.0101400

 DIPCOR: dipole corrections for dipol
 direction  3 min pos    85,
 dipolmoment           0.000000      0.000000      0.000291 electrons x Angstroem
 Tr[quadrupol]        -2.321878

 energy correction for charged system         0.000000 eV
 dipol+quadrupol energy correction           -0.000000 eV
 added-field ion interaction          0.000000 eV  (added to PSCEN)


 Broyden mixing:
  rms(total) = 0.97233E-02    rms(broyden)= 0.97187E-02
  rms(prec ) = 0.11235E-01
  weight for this iteration     100.00

 eigenvalues of (default mixing * dielectric matrix)
  average eigenvalue GAMMA=   0.9707
  3.7276  2.1026  1.3147  1.3147  0.9145  0.9145  0.7316  0.6299  0.6299  0.4455
  0.4877  0.4877  0.4606  0.4606  0.4545  0.4545

 Free energy of the ion-electron system (eV)
  ---------------------------------------------------
  alpha Z        PSCENC =         0.13516769
  Ewald energy   TEWEN  =       152.84252707
  -1/2 Hartree   DENC   =      -308.26023580
  -exchange  EXHF       =         0.00000000
  -V(xc)+E(xc)   XCENC  =        24.61699623
  PAW double counting   =       446.56273190     -447.34856295
  entropy T*S    EENTRO =         0.01591794
  eigenvalues    EBANDS =       -89.66569849
  atomic energy  EATOM  =       197.09414118
  ---------------------------------------------------
  free energy    TOTEN  =       -24.00701522 eV

  energy without entropy =      -24.02293316  energy(sigma->0) =      -24.01232120


--------------------------------------------------------------------------------------------------------




----------------------------------------- Iteration    1(  22)  ---------------------------------------


    POTLOK:  cpu time    1.06: real time    1.06
    SETDIJ:  cpu time    0.01: real time    0.01
     EDDAV:  cpu time    3.50: real time    3.71
       DOS:  cpu time    0.00: real time    0.00
    CHARGE:  cpu time    0.12: real time    0.12
    MIXING:  cpu time    0.05: real time    0.05
    --------------------------------------------
      LOOP:  cpu time    4.74: real time    4.96

 eigenvalue-minimisations  :   444
 total energy-change (2. order) :-0.3813235E-03  (-0.5881287E-04)
 number of electron       7.9999985 magnetization       0.1049970
 augmentation part        0.1837579 magnetization      -0.0070178

 DIPCOR: dipole corrections for dipol
 direction  3 min pos    85,
 dipolmoment           0.000000      0.000000      0.000132 electrons x Angstroem
 Tr[quadrupol]        -2.347313

 energy correction for charged system         0.000000 eV
 dipol+quadrupol energy correction           -0.000000 eV
 added-field ion interaction          0.000000 eV  (added to PSCEN)


 Broyden mixing:
  rms(total) = 0.47948E-02    rms(broyden)= 0.47847E-02
  rms(prec ) = 0.59474E-02
  weight for this iteration     100.00

 eigenvalues of (default mixing * dielectric matrix)
  average eigenvalue GAMMA=   0.9502
  3.7308  2.0896  1.2262  1.2262  0.8801  0.8801  0.8030  0.8030  0.6361  0.6361
  0.4455  0.4690  0.4690  0.4766  0.4766  0.4527  0.4527

 Free energy of the ion-electron system (eV)
  ---------------------------------------------------
  alpha Z        PSCENC =         0.13516770
  Ewald energy   TEWEN  =       152.84252707
  -1/2 Hartree   DENC   =      -308.28785345
  -exchange  EXHF       =         0.00000000
  -V(xc)+E(xc)   XCENC  =        24.61611732
  PAW double counting   =       446.58863513     -447.37437499
  entropy T*S    EENTRO =         0.01575322
  eigenvalues    EBANDS =       -89.63750972
  atomic energy  EATOM  =       197.09414118
  ---------------------------------------------------
  free energy    TOTEN  =       -24.00739655 eV

  energy without entropy =      -24.02314977  energy(sigma->0) =      -24.01264762


--------------------------------------------------------------------------------------------------------




----------------------------------------- Iteration    1(  23)  ---------------------------------------


    POTLOK:  cpu time    0.81: real time    0.81
    SETDIJ:  cpu time    0.01: real time    0.01
     EDDAV:  cpu time    2.65: real time    2.65
       DOS:  cpu time    0.00: real time    0.00
    CHARGE:  cpu time    0.12: real time    0.12
    MIXING:  cpu time    0.05: real time    0.05
    --------------------------------------------
      LOOP:  cpu time    3.64: real time    3.65

 eigenvalue-minimisations  :   453
 total energy-change (2. order) :-0.9665882E-04  (-0.9525420E-06)
 number of electron       7.9999985 magnetization       0.1043274
 augmentation part        0.1837523 magnetization      -0.0077632

 DIPCOR: dipole corrections for dipol
 direction  3 min pos    85,
 dipolmoment           0.000000      0.000000      0.000118 electrons x Angstroem
 Tr[quadrupol]        -2.348153

 energy correction for charged system         0.000000 eV
 dipol+quadrupol energy correction           -0.000000 eV
 added-field ion interaction          0.000000 eV  (added to PSCEN)


 Broyden mixing:
  rms(total) = 0.43970E-02    rms(broyden)= 0.43965E-02
  rms(prec ) = 0.55877E-02
  weight for this iteration     100.00

 eigenvalues of (default mixing * dielectric matrix)
  average eigenvalue GAMMA=   0.9939
  3.7842  2.0860  1.2076  1.2076  1.4232  1.2364  0.8810  0.8810  0.7067  0.6212
  0.6212  0.4455  0.4635  0.4635  0.4817  0.4817  0.4494  0.4494

 Free energy of the ion-electron system (eV)
  ---------------------------------------------------
  alpha Z        PSCENC =         0.13516770
  Ewald energy   TEWEN  =       152.84252707
  -1/2 Hartree   DENC   =      -308.29030718
  -exchange  EXHF       =         0.00000000
  -V(xc)+E(xc)   XCENC  =        24.61617708
  PAW double counting   =       446.60348628     -447.38921983
  entropy T*S    EENTRO =         0.01575809
  eigenvalues    EBANDS =       -89.63522359
  atomic energy  EATOM  =       197.09414118
  ---------------------------------------------------
  free energy    TOTEN  =       -24.00749320 eV

  energy without entropy =      -24.02325129  energy(sigma->0) =      -24.01274590


--------------------------------------------------------------------------------------------------------




----------------------------------------- Iteration    1(  24)  ---------------------------------------


    POTLOK:  cpu time    0.80: real time    0.80
    SETDIJ:  cpu time    0.01: real time    0.01
     EDDAV:  cpu time    2.52: real time    2.52
       DOS:  cpu time    0.00: real time    0.00
    CHARGE:  cpu time    0.13: real time    0.13
    MIXING:  cpu time    0.05: real time    0.05
    --------------------------------------------
      LOOP:  cpu time    3.52: real time    3.52

 eigenvalue-minimisations  :   423
 total energy-change (2. order) :-0.6731118E-03  (-0.4187185E-05)
 number of electron       7.9999985 magnetization       0.1040181
 augmentation part        0.1837491 magnetization      -0.0096153

 DIPCOR: dipole corrections for dipol
 direction  3 min pos    85,
 dipolmoment           0.000000      0.000000      0.000106 electrons x Angstroem
 Tr[quadrupol]        -2.365437

 energy correction for charged system         0.000000 eV
 dipol+quadrupol energy correction           -0.000000 eV
 added-field ion interaction          0.000000 eV  (added to PSCEN)


 Broyden mixing:
  rms(total) = 0.24230E-02    rms(broyden)= 0.24223E-02
  rms(prec ) = 0.36617E-02
  weight for this iteration     100.00

 eigenvalues of (default mixing * dielectric matrix)
  average eigenvalue GAMMA=   1.0566
  3.9641  2.4687  1.9357  1.2582  1.2582  1.3520  0.9368  0.9368  0.8233  0.6491
  0.6293  0.6293  0.4455  0.4641  0.4641  0.4809  0.4809  0.4494  0.4494

 Free energy of the ion-electron system (eV)
  ---------------------------------------------------
  alpha Z        PSCENC =         0.13516770
  Ewald energy   TEWEN  =       152.84252707
  -1/2 Hartree   DENC   =      -308.31270196
  -exchange  EXHF       =         0.00000000
  -V(xc)+E(xc)   XCENC  =        24.61579281
  PAW double counting   =       446.64438323     -447.43009004
  entropy T*S    EENTRO =         0.01582260
  eigenvalues    EBANDS =       -89.61320890
  atomic energy  EATOM  =       197.09414118
  ---------------------------------------------------
  free energy    TOTEN  =       -24.00816632 eV

  energy without entropy =      -24.02398892  energy(sigma->0) =      -24.01344052


--------------------------------------------------------------------------------------------------------




----------------------------------------- Iteration    1(  25)  ---------------------------------------


    POTLOK:  cpu time    0.97: real time    0.97
    SETDIJ:  cpu time    0.01: real time    0.01
     EDDAV:  cpu time    3.20: real time    3.22
       DOS:  cpu time    0.00: real time    0.00
    CHARGE:  cpu time    0.16: real time    0.16
    MIXING:  cpu time    0.07: real time    0.07
    --------------------------------------------
      LOOP:  cpu time    4.42: real time    4.44

 eigenvalue-minimisations  :   402
 total energy-change (2. order) : 0.6026035E-04  (-0.1847277E-04)
 number of electron       7.9999985 magnetization       0.1055975
 augmentation part        0.1837443 magnetization      -0.0047090

 DIPCOR: dipole corrections for dipol
 direction  3 min pos    85,
 dipolmoment           0.000000      0.000000      0.000087 electrons x Angstroem
 Tr[quadrupol]        -2.409756

 energy correction for charged system         0.000000 eV
 dipol+quadrupol energy correction           -0.000000 eV
 added-field ion interaction          0.000000 eV  (added to PSCEN)


 Broyden mixing:
  rms(total) = 0.23239E-02    rms(broyden)= 0.23220E-02
  rms(prec ) = 0.29324E-02
  weight for this iteration     100.00

 eigenvalues of (default mixing * dielectric matrix)
  average eigenvalue GAMMA=   1.0791
  4.0836  2.8617  1.9759  1.2394  1.2394  1.3981  0.9723  0.9723  0.9194  0.7785
  0.6365  0.6365  0.6347  0.4455  0.4494  0.4494  0.4640  0.4640  0.4809  0.4809

 Free energy of the ion-electron system (eV)
  ---------------------------------------------------
  alpha Z        PSCENC =         0.13516770
  Ewald energy   TEWEN  =       152.84252707
  -1/2 Hartree   DENC   =      -308.36389778
  -exchange  EXHF       =         0.00000000
  -V(xc)+E(xc)   XCENC  =        24.61600104
[...]
  atomic energy  EATOM  =       197.09414118
  ---------------------------------------------------
  free energy    TOTEN  =       -24.02477309 eV

  energy without entropy =      -24.04049409  energy(sigma->0) =      -24.03001342


--------------------------------------------------------------------------------------------------------




----------------------------------------- Iteration    3(  13)  ---------------------------------------


    POTLOK:  cpu time    1.22: real time    1.23
    SETDIJ:  cpu time    0.02: real time    0.02
     EDDAV:  cpu time    4.83: real time    4.84
       DOS:  cpu time    0.00: real time    0.00
    --------------------------------------------
      LOOP:  cpu time    6.07: real time    6.09

 eigenvalue-minimisations  :   453
 total energy-change (2. order) :-0.4995365E-06  (-0.6610526E-07)
 number of electron       7.9999983 magnetization       0.1165824
 augmentation part        0.1874123 magnetization       0.0050417

 DIPCOR: dipole corrections for dipol
 direction  3 min pos    86,
 dipolmoment           0.000000      0.000000      0.000053 electrons x Angstroem
 Tr[quadrupol]        -2.451064

 energy correction for charged system         0.000000 eV
 dipol+quadrupol energy correction           -0.000000 eV
 added-field ion interaction          0.000004 eV  (added to PSCEN)


 Free energy of the ion-electron system (eV)
  ---------------------------------------------------
  alpha Z        PSCENC =         0.13517161
  Ewald energy   TEWEN  =       155.94110760
  -1/2 Hartree   DENC   =      -311.20623441
  -exchange  EXHF       =         0.00000000
  -V(xc)+E(xc)   XCENC  =        24.75697580
  PAW double counting   =       465.12937830     -465.92598781
  entropy T*S    EENTRO =         0.01571489
  eigenvalues    EBANDS =       -89.96504075
  atomic energy  EATOM  =       197.09414118
  ---------------------------------------------------
  free energy    TOTEN  =       -24.02477359 eV

  energy without entropy =      -24.04048847  energy(sigma->0) =      -24.03001188


--------------------------------------------------------------------------------------------------------




 average (electrostatic) potential at core
  the test charge radii are     0.6991  0.5201
  (the norm of the test charge is              1.0000)
       1 -57.9889       2 -41.5780       3 -41.5793       4 -41.5757       5 -41.5800
 
 
 
 E-fermi :  -9.2242     XC(G=0):  -0.4070     alpha+bet : -0.1175


 spin component 1

 k-point   1 :       0.0000    0.0000    0.2500
  band No.  band energies     occupation 
      1     -16.9882      1.00000
      2      -9.3925      1.01931
      3      -9.3923      1.01938
      4      -9.3917      1.01964
      5      -0.4543      0.00000
      6       0.1864      0.00000
      7       0.7118      0.00000
      8       0.7940      0.00000
      9       0.9384      0.00000
     10       1.0741      0.00000
     11       1.1963      0.00000

 k-point   2 :       0.3333    0.0000    0.2500
  band No.  band energies     occupation 
      1     -16.9882      1.00000
      2      -9.3925      1.01930
      3      -9.3923      1.01938
      4      -9.3917      1.01964
      5      -0.3425      0.00000
      6       0.3119      0.00000
      7       0.4290      0.00000
      8       0.8272      0.00000
      9       0.9081      0.00000
     10       0.9154      0.00000
     11       1.0911      0.00000

 k-point   3 :      -0.3333    0.0000    0.2500
  band No.  band energies     occupation 
      1     -16.9882      1.00000
      2      -9.3925      1.01931
      3      -9.3923      1.01937
      4      -9.3917      1.01964
      5      -0.3425      0.00000
      6       0.3114      0.00000
      7       0.4295      0.00000
      8       0.8258      0.00000
      9       0.9081      0.00000
     10       0.9160      0.00000
     11       1.0948      0.00000

 k-point   4 :       0.0000    0.3333    0.2500
  band No.  band energies     occupation 
      1     -16.9882      1.00000
      2      -9.3925      1.01931
      3      -9.3923      1.01938
      4      -9.3917      1.01964
      5      -0.3933      0.00000
      6       0.2463      0.00000
      7       0.3574      0.00000
      8       0.6948      0.00000
      9       0.9036      0.00000
     10       1.1360      0.00000
     11       1.2733      0.00000

 k-point   5 :       0.3333    0.3333    0.2500
  band No.  band energies     occupation 
      1     -16.9882      1.00000
      2      -9.3925      1.01931
      3      -9.3923      1.01937
      4      -9.3917      1.01964
      5      -0.2865      0.00000
      6       0.3765      0.00000
      7       0.5020      0.00000
      8       0.5243      0.00000
      9       0.8217      0.00000
     10       0.9363      0.00000
     11       0.9930      0.00000

 k-point   6 :      -0.3333    0.3333    0.2500
  band No.  band energies     occupation 
      1     -16.9882      1.00000
      2      -9.3925      1.01930
      3      -9.3923      1.01938
      4      -9.3917      1.01964
      5      -0.2866      0.00000
      6       0.3756      0.00000
      7       0.4999      0.00000
      8       0.5250      0.00000
      9       0.8198      0.00000
     10       0.9498      0.00000
     11       0.9901      0.00000

 k-point   7 :       0.0000   -0.3333    0.2500
  band No.  band energies     occupation 
      1     -16.9882      1.00000
      2      -9.3925      1.01931
      3      -9.3923      1.01938
      4      -9.3917      1.01964
      5      -0.3933      0.00000
      6       0.2465      0.00000
      7       0.3572      0.00000
      8       0.6948      0.00000
      9       0.9036      0.00000
     10       1.1359      0.00000
     11       1.2722      0.00000

 k-point   8 :       0.3333   -0.3333    0.2500
  band No.  band energies     occupation 
      1     -16.9882      1.00000
      2      -9.3925      1.01931
      3      -9.3923      1.01937
      4      -9.3917      1.01964
      5      -0.2866      0.00000
      6       0.3760      0.00000
      7       0.4999      0.00000
      8       0.5248      0.00000
      9       0.8205      0.00000
     10       0.9464      0.00000
     11       0.9925      0.00000

 k-point   9 :      -0.3333   -0.3333    0.2500
  band No.  band energies     occupation 
      1     -16.9882      1.00000
      2      -9.3925      1.01931
      3      -9.3923      1.01937
      4      -9.3917      1.01964
      5      -0.2865      0.00000
      6       0.3761      0.00000
      7       0.5014      0.00000
      8       0.5251      0.00000
      9       0.8208      0.00000
     10       0.9386      0.00000
     11       0.9929      0.00000

 spin component 2

 k-point   1 :       0.0000    0.0000    0.2500
  band No.  band energies     occupation 
      1     -16.8929      1.00000
      2      -9.3011      0.98174
      3      -9.3007      0.98040
      4      -9.3003      0.97950
      5      -0.4525      0.00000
      6       0.1890      0.00000
      7       0.7097      0.00000
      8       0.7874      0.00000
      9       0.9199      0.00000
     10       1.0716      0.00000
     11       1.1871      0.00000

 k-point   2 :       0.3333    0.0000    0.2500
  band No.  band energies     occupation 
      1     -16.8929      1.00000
      2      -9.3011      0.98177
      3      -9.3007      0.98042
      4      -9.3003      0.97952
      5      -0.3372      0.00000
      6       0.3117      0.00000
      7       0.4180      0.00000
      8       0.8279      0.00000
      9       0.9052      0.00000
     10       0.9155      0.00000
     11       1.0754      0.00000

 k-point   3 :      -0.3333    0.0000    0.2500
  band No.  band energies     occupation 
      1     -16.8929      1.00000
      2      -9.3011      0.98178
      3      -9.3007      0.98043
      4      -9.3003      0.97949
      5      -0.3372      0.00000
      6       0.3104      0.00000
      7       0.4197      0.00000
      8       0.8279      0.00000
      9       0.9048      0.00000
     10       0.9143      0.00000
     11       1.0793      0.00000

 k-point   4 :       0.0000    0.3333    0.2500
  band No.  band energies     occupation 
      1     -16.8929      1.00000
      2      -9.3011      0.98176
      3      -9.3007      0.98042
      4      -9.3003      0.97947
      5      -0.3884      0.00000
      6       0.2418      0.00000
      7       0.3470      0.00000
      8       0.6950      0.00000
      9       0.9044      0.00000
     10       1.1365      0.00000
     11       1.2659      0.00000

 k-point   5 :       0.3333    0.3333    0.2500
  band No.  band energies     occupation 
      1     -16.8929      1.00000
      2      -9.3011      0.98175
      3      -9.3007      0.98042
      4      -9.3003      0.97950
      5      -0.2783      0.00000
      6       0.3706      0.00000
      7       0.4929      0.00000
      8       0.5168      0.00000
      9       0.8244      0.00000
     10       0.9304      0.00000
     11       0.9784      0.00000

 k-point   6 :      -0.3333    0.3333    0.2500
  band No.  band energies     occupation 
      1     -16.8929      1.00000
      2      -9.3011      0.98175
      3      -9.3007      0.98042
      4      -9.3004      0.97952
      5      -0.2783      0.00000
      6       0.3692      0.00000
      7       0.4907      0.00000
      8       0.5182      0.00000
      9       0.8215      0.00000
     10       0.9438      0.00000
     11       0.9790      0.00000

 k-point   7 :       0.0000   -0.3333    0.2500
  band No.  band energies     occupation 
      1     -16.8929      1.00000
      2      -9.3011      0.98175
      3      -9.3007      0.98042
      4      -9.3003      0.97950
      5      -0.3884      0.00000
      6       0.2408      0.00000
      7       0.3483      0.00000
      8       0.6950      0.00000
      9       0.9034      0.00000
     10       1.1363      0.00000
     11       1.2651      0.00000

 k-point   8 :       0.3333   -0.3333    0.2500
  band No.  band energies     occupation 
      1     -16.8929      1.00000
      2      -9.3011      0.98176
      3      -9.3007      0.98042
      4      -9.3003      0.97949
      5      -0.2783      0.00000
      6       0.3692      0.00000
      7       0.4926      0.00000
      8       0.5167      0.00000
      9       0.8228      0.00000
     10       0.9375      0.00000
     11       0.9823      0.00000

 k-point   9 :      -0.3333   -0.3333    0.2500
  band No.  band energies     occupation 
      1     -16.8929      1.00000
      2      -9.3011      0.98176
      3      -9.3007      0.98044
      4      -9.3003      0.97949
      5      -0.2783      0.00000
      6       0.3693      0.00000
      7       0.4932      0.00000
      8       0.5179      0.00000
      9       0.8226      0.00000
     10       0.9334      0.00000
     11       0.9797      0.00000


--------------------------------------------------------------------------------------------------------


 soft charge-density along one line, spin component           1
         0         1         2         3         4         5         6         7         8         9
 total charge-density along one line
 
 soft charge-density along one line, spin component           2
         0         1         2         3         4         5         6         7         8         9
 total charge-density along one line
 
 pseudopotential strength for first ion, spin component:           1
 10.212  13.580   0.000  -0.000  -0.000  -0.000   0.000   0.000
 13.580  18.058   0.000  -0.000  -0.000  -0.000   0.000   0.000
  0.000   0.000  -4.335  -0.000   0.000   8.480   0.000  -0.000
 -0.000  -0.000  -0.000  -4.335  -0.000   0.000   8.480   0.000
 -0.000  -0.000   0.000  -0.000  -4.335  -0.000   0.000   8.480
 -0.000  -0.000   8.480   0.000  -0.000 -18.725  -0.000   0.000
  0.000   0.000   0.000   8.480   0.000  -0.000 -18.725  -0.000
  0.000   0.000  -0.000   0.000   8.480   0.000  -0.000 -18.725
 pseudopotential strength for first ion, spin component:           2
 10.202  13.567   0.000  -0.000   0.000  -0.000   0.000  -0.000
 13.567  18.040   0.000  -0.000   0.000  -0.000   0.000  -0.000
  0.000   0.000  -4.332   0.000   0.000   8.477  -0.000  -0.000
 -0.000  -0.000   0.000  -4.332   0.000  -0.000   8.477  -0.000
  0.000   0.000   0.000   0.000  -4.332  -0.000  -0.000   8.477
 -0.000  -0.000   8.477  -0.000  -0.000 -18.723   0.000   0.000
  0.000   0.000  -0.000   8.477  -0.000   0.000 -18.723   0.000
 -0.000  -0.000  -0.000  -0.000   8.477   0.000   0.000 -18.723
 total augmentation occupancy for first ion, spin component:           1
  7.683  -3.292   0.001  -0.000  -0.000   0.000  -0.000  -0.000
 -3.292   1.411  -0.001   0.000   0.000  -0.000   0.000   0.000
  0.001  -0.001   1.619  -0.001   0.000   0.132  -0.000   0.000
 -0.000   0.000  -0.001   1.618  -0.001  -0.000   0.132  -0.000
 -0.000   0.000   0.000  -0.001   1.619   0.000  -0.000   0.132
  0.000  -0.000   0.132  -0.000   0.000   0.011  -0.000   0.000
 -0.000   0.000  -0.000   0.132  -0.000  -0.000   0.011  -0.000
 -0.000   0.000   0.000  -0.000   0.132   0.000  -0.000   0.011
 total augmentation occupancy for first ion, spin component:           2
  0.014  -0.007   0.000  -0.000  -0.000   0.000  -0.000   0.000
 -0.007   0.004  -0.000   0.000   0.000  -0.000   0.000  -0.000
  0.000  -0.000   0.033   0.001  -0.000   0.003   0.000  -0.000
 -0.000   0.000   0.001   0.033   0.001   0.000   0.003   0.000
 -0.000   0.000  -0.000   0.001   0.033  -0.000   0.000   0.003
  0.000  -0.000   0.003   0.000  -0.000   0.000   0.000  -0.000
 -0.000   0.000   0.000   0.003   0.000   0.000   0.000   0.000
  0.000  -0.000  -0.000   0.000   0.003  -0.000   0.000   0.000


------------------------ aborting loop because EDIFF is reached ----------------------------------------


    CHARGE:  cpu time    0.22: real time    0.22
    FORLOC:  cpu time    0.04: real time    0.04
    FORNL :  cpu time    1.23: real time    1.24
    STRESS:  cpu time    3.98: real time    3.99
    FORCOR:  cpu time    1.16: real time    1.16
    FORHAR:  cpu time    0.15: real time    0.15
    MIXING:  cpu time    0.05: real time    0.05

  FORCE on cell =-STRESS in cart. coord.  units (eV):
  Direction    XX          YY          ZZ          XY          YZ          ZX
  --------------------------------------------------------------------------------------
  Alpha Z     0.13517     0.13517     0.13517
  Ewald      72.44933    56.65797    26.83381     0.00591    -0.00366    -0.00647
  Hartree   123.77026   108.38325    79.04824     0.00462    -0.00555    -0.00700
  E(xc)     -27.22914   -27.22907   -27.22917     0.00004    -0.00001    -0.00002
  Local    -254.70578  -223.53202  -164.36162    -0.01546     0.01525     0.02023
  n-local   -15.81907   -15.83719   -15.80650    -0.00314     0.00224     0.00205
  augment     0.12340     0.12345     0.12294     0.00003    -0.00015    -0.00005
  Kinetic   101.23645   101.24600   101.23285     0.00639    -0.00945    -0.01319
  Fock        0.00000     0.00000     0.00000     0.00000     0.00000     0.00000
  -------------------------------------------------------------------------------------
  Total      -0.03938    -0.05244    -0.02428    -0.00162    -0.00132    -0.00446
  in kB      -0.03520    -0.04688    -0.02170    -0.00144    -0.00118    -0.00398
  external pressure =       -0.03 kB  Pullay stress =        0.00 kB


 VOLUME and BASIS-vectors are now :
 -----------------------------------------------------------------------------
  energy-cutoff  :      500.00
  volume of cell :     1792.22
      direct lattice vectors                 reciprocal lattice vectors
    10.160000000  0.000000000  0.000000000     0.098425197  0.000000000  0.000000000
     0.000000000 11.760000000  0.000000000     0.000000000  0.085034014  0.000000000
     0.000000000  0.000000000 15.000000000     0.000000000  0.000000000  0.066666667

  length of vectors
    10.160000000 11.760000000 15.000000000     0.098425197  0.085034014  0.066666667


 FORCES acting on ions
    electron-ion (+dipol)            ewald-force                    non-local-force                 convergence-correction
 -----------------------------------------------------------------------------------------------
   -.153E-01 -.949E-02 0.308E-02   0.171E-01 -.447E-02 -.223E-02   -.346E-03 0.562E-03 -.573E-04   -.122E-02 0.360E-02 0.363E-03
   -.529E+02 -.238E-02 -.822E-03   0.584E+02 0.411E-02 -.305E-02   -.553E+01 -.185E-03 -.405E-03   -.601E-03 0.134E-03 0.643E-03
   0.176E+02 -.295E+02 -.407E+02   -.195E+02 0.325E+02 0.449E+02   0.184E+01 -.306E+01 -.421E+01   0.607E-03 0.213E-03 -.530E-03
   0.176E+02 0.498E+02 -.529E+01   -.195E+02 -.550E+02 0.584E+01   0.184E+01 0.518E+01 -.547E+00   0.172E-03 0.506E-03 -.639E-03
   0.176E+02 -.203E+02 0.460E+02   -.195E+02 0.225E+02 -.508E+02   0.184E+01 -.212E+01 0.476E+01   -.400E-03 -.369E-03 0.621E-03
 -----------------------------------------------------------------------------------------------
   0.833E-03 -.133E-01 0.150E-02   -.355E-14 0.355E-14 -.711E-14   0.202E-03 0.440E-02 -.216E-03   -.145E-02 0.408E-02 0.457E-03
 
 
 POSITION                                       TOTAL-FORCE (eV/Angst)
 -----------------------------------------------------------------------------------
     -0.00003     -0.00010      0.00002         0.000386     -0.008839      0.000809
      1.09604      0.00002     -0.00003        -0.000838      0.002649     -0.003984
      9.79461      0.60788      0.83564        -0.002498      0.000691      0.000216
      9.79463     10.73240      0.10864        -0.000487      0.001488      0.003109
      9.79465      0.41979     14.05573         0.003438      0.004010     -0.000150
 -----------------------------------------------------------------------------------
    total drift:                               -0.000410     -0.004819      0.001743


--------------------------------------------------------------------------------------------------------



  FREE ENERGIE OF THE ION-ELECTRON SYSTEM (eV)
  ---------------------------------------------------
  free  energy   TOTEN  =       -24.02477359 eV

  energy  without entropy=      -24.04048847  energy(sigma->0) =      -24.03001188
 
 d Force = 0.3127001E-02[ 0.250E-06, 0.625E-02]  d Energy = 0.3128159E-02-0.116E-05
 d Force = 0.1624175E+01[ 0.161E+01, 0.163E+01]  d Ewald  = 0.1624143E+01 0.323E-04


--------------------------------------------------------------------------------------------------------


    POTLOK:  cpu time    1.25: real time    1.25


--------------------------------------------------------------------------------------------------------




--------------------------------------------------------------------------------------------------------


  
 reached required accuracy - stopping structural energy minimisation
     LOOP+:  cpu time   86.39: real time   86.56
    4ORBIT:  cpu time    0.00: real time    0.00

 total amount of memory used by VASP on root node   143666. kBytes
========================================================================

   base      :      30000. kBytes
   nonlr-proj:        159. kBytes
   fftplans  :      22744. kBytes
   grid      :      54677. kBytes
   one-center:         12. kBytes
   wavefun   :      36074. kBytes
 
  
  
 General timing and accounting informations for this job:
 ========================================================
  
                  Total CPU time used (sec):      401.361
                            User time (sec):      397.447
                          System time (sec):        3.914
                         Elapsed time (sec):      403.908
  
                   Maximum memory used (kb):      242660.
                   Average memory used (kb):           0.
  
                          Minor page faults:      1625438
                          Major page faults:           16
                 Voluntary context switches:         1673
