Warning: no access to tty (Bad file descriptor).
Thus no job control in this shell.
stty: standard input: Inappropriate ioctl for device
 running on    4 total cores
 distrk:  each k-point on    4 cores,    1 groups
 distr:  one band on    4 cores,    1 groups
 using from now: INCAR     
 vasp.5.3.3 18Dez12 (build Aug 26 2015 16:06:49) complex                        
  
 POSCAR found :  2 types and       5 ions
 scaLAPACK will be used

 ----------------------------------------------------------------------------- 
|                                                                             |
|  ADVICE TO THIS USER RUNNING 'VASP/VAMP'   (HEAR YOUR MASTER'S VOICE ...):  |
|                                                                             |
|      You have a (more or less) 'small supercell' and for smaller cells      |
|      it is recommended  to use the reciprocal-space projection scheme!      |
|      The real space optimization is not  efficient for small cells and it   |
|      is also less accurate ...                                              |
|      Therefore set LREAL=.FALSE. in the  INCAR file                         |
|                                                                             |
 ----------------------------------------------------------------------------- 

 LDA part: xc-table for Pade appr. of Perdew
 POSCAR, INCAR and KPOINTS ok, starting setup
 WARNING: small aliasing (wrap around) errors must be expected
 FFT: planning ...
 WAVECAR not read
 entering main loop
       N       E                     dE             d eps       ncg     rms          rms(c)
DAV:   1     0.561637274724E+02    0.56164E+02   -0.11939E+03   396   0.316E+02
DAV:   2    -0.346256534492E+01   -0.59626E+02   -0.54377E+02   683   0.648E+01
DAV:   3    -0.188207452823E+02   -0.15358E+02   -0.15331E+02   492   0.498E+01
DAV:   4    -0.198011819643E+02   -0.98044E+00   -0.98844E+00   633   0.157E+01
DAV:   5    -0.198117664915E+02   -0.10585E-01   -0.10559E-01   564   0.143E+00    0.152E+01
DAV:   6    -0.818913518943E+01    0.11623E+02   -0.41650E+01   495   0.318E+01    0.668E+00
DAV:   7    -0.182768244961E+02   -0.10088E+02   -0.83732E+00   496   0.136E+01    0.392E+00
DAV:   8    -0.201432599212E+02   -0.18664E+01   -0.61904E-01   496   0.386E+00    0.239E+00
DAV:   9    -0.228196073445E+02   -0.26763E+01   -0.11556E+00   454   0.449E+00    0.909E-01
DAV:  10    -0.234187461637E+02   -0.59914E+00   -0.17537E-01   543   0.171E+00    0.658E-01
DAV:  11    -0.235798940540E+02   -0.16115E+00   -0.11278E-02   448   0.537E-01    0.377E-01
DAV:  12    -0.237194481593E+02   -0.13955E+00   -0.20617E-02   419   0.726E-01    0.379E-01
DAV:  13    -0.237346005781E+02   -0.15152E-01   -0.14212E-03   532   0.249E-01    0.337E-01
DAV:  14    -0.237560283774E+02   -0.21428E-01   -0.10280E-02   396   0.292E-01    0.274E-01
DAV:  15    -0.239384598080E+02   -0.18243E+00   -0.15975E-02   492   0.468E-01    0.192E-01
DAV:  16    -0.239677933851E+02   -0.29334E-01   -0.23311E-03   463   0.206E-01    0.190E-01
DAV:  17    -0.239721948069E+02   -0.44014E-02   -0.55752E-04   530   0.759E-02    0.194E-01
DAV:  18    -0.239879834267E+02   -0.15789E-01   -0.18698E-03   419   0.148E-01    0.605E-02
DAV:  19    -0.240045328920E+02   -0.16549E-01   -0.48469E-04   414   0.106E-01    0.964E-02
DAV:  20    -0.240062802431E+02   -0.17474E-02   -0.57696E-04   490   0.528E-02    0.120E-01
DAV:  21    -0.240070152216E+02   -0.73498E-03   -0.54357E-04   444   0.473E-02    0.972E-02
DAV:  22    -0.240073965450E+02   -0.38132E-03   -0.58813E-04   444   0.572E-02    0.479E-02
DAV:  23    -0.240074932038E+02   -0.96659E-04   -0.95254E-06   453   0.209E-02    0.440E-02
DAV:  24    -0.240081663156E+02   -0.67311E-03   -0.41872E-05   423   0.363E-02    0.242E-02
DAV:  25    -0.240081060553E+02    0.60260E-04   -0.18473E-04   402   0.531E-02    0.232E-02
DAV:  26    -0.240095803530E+02   -0.14743E-02   -0.95617E-05   464   0.371E-02    0.175E-02
DAV:  27    -0.240115288466E+02   -0.19485E-02   -0.62893E-05   426   0.324E-02    0.122E-02
DAV:  28    -0.240127361777E+02   -0.12073E-02   -0.53406E-05   450   0.253E-02    0.142E-02
DAV:  29    -0.240127016534E+02    0.34524E-04   -0.16325E-06   509   0.706E-03    0.121E-02
DAV:  30    -0.240129527653E+02   -0.25111E-03   -0.63188E-06   446   0.118E-02    0.562E-03
DAV:  31    -0.240131995528E+02   -0.24679E-03   -0.57476E-06   422   0.117E-02    0.488E-03
DAV:  32    -0.240131901700E+02    0.93827E-05   -0.25277E-06   414   0.732E-03    0.350E-03
DAV:  33    -0.240132865992E+02   -0.96429E-04   -0.11665E-06   452   0.559E-03    0.291E-03
DAV:  34    -0.240133644454E+02   -0.77846E-04   -0.13551E-06   444   0.416E-03    0.132E-03
DAV:  35    -0.240133929402E+02   -0.28495E-04   -0.25183E-07   459   0.190E-03    0.580E-04
DAV:  36    -0.240133981087E+02   -0.51685E-05   -0.92641E-08   443   0.114E-03    0.414E-04
DAV:  37    -0.240134003238E+02   -0.22151E-05   -0.34708E-08   449   0.728E-04    0.158E-04
DAV:  38    -0.240134028566E+02   -0.25329E-05   -0.24503E-08   438   0.583E-04    0.141E-04
DAV:  39    -0.240134037564E+02   -0.89977E-06   -0.10208E-08   450   0.389E-04
   1 F= -.24013404E+02 E0= -.24018651E+02  d E =-.240134E+02  mag=     0.1172
 curvature:   0.00 expect dE= 0.000E+00 dE for cont linesearch  0.000E+00
 trial: gam= 0.00000 g(F)=  0.340E-01 g(S)=  0.000E+00 ort = 0.000E+00 (trialstep = 0.100E+01)
 search vector abs. value=  0.340E-01
 bond charge predicted
       N       E                     dE             d eps       ncg     rms          rms(c)
DAV:   1    -0.240301431856E+02   -0.16740E-01   -0.79354E-01   435   0.587E+00    0.496E-01
DAV:   2    -0.240223278626E+02    0.78153E-02   -0.17471E-02   417   0.688E-01    0.232E-01
DAV:   3    -0.240216076583E+02    0.72020E-03   -0.16640E-02   436   0.530E-01    0.271E-01
DAV:   4    -0.240221289106E+02   -0.52125E-03   -0.49346E-04   429   0.126E-01    0.338E-01
DAV:   5    -0.240215659746E+02    0.56294E-03   -0.29437E-04   423   0.103E-01    0.142E-01
DAV:   6    -0.240216585178E+02   -0.92543E-04   -0.40638E-04   402   0.578E-02    0.111E-01
DAV:   7    -0.240215973868E+02    0.61131E-04   -0.15122E-04   402   0.576E-02    0.906E-02
DAV:   8    -0.240216151381E+02   -0.17751E-04   -0.45735E-04   414   0.873E-02    0.609E-02
DAV:   9    -0.240216499162E+02   -0.34778E-04   -0.24045E-05   423   0.286E-02    0.711E-02
DAV:  10    -0.240216120431E+02    0.37873E-04   -0.10007E-04   434   0.263E-02    0.280E-02
DAV:  11    -0.240216331366E+02   -0.21094E-04   -0.14152E-05   420   0.175E-02    0.154E-02
DAV:  12    -0.240216389870E+02   -0.58504E-05   -0.35357E-06   405   0.105E-02    0.116E-02
DAV:  13    -0.240216455952E+02   -0.66082E-05   -0.33503E-05   405   0.128E-02    0.200E-02
DAV:  14    -0.240216454274E+02    0.16780E-06   -0.80110E-07   420   0.595E-03
   2 F= -.24021645E+02 E0= -.24026885E+02  d E =-.824167E-02  mag=     0.1161
 trial-energy change:   -0.008242  1 .order   -0.007790   -0.033988    0.018408
 step:   0.6603(harm=  0.6487)  dis= 0.01257  next Energy=   -24.024755 (dE=-0.114E-01)
 bond charge predicted
       N       E                     dE             d eps       ncg     rms          rms(c)
DAV:   1    -0.240257628980E+02   -0.41173E-02   -0.92474E-02   414   0.200E+00    0.173E-01
DAV:   2    -0.240248148786E+02    0.94802E-03   -0.22968E-03   417   0.241E-01    0.785E-02
DAV:   3    -0.240247033732E+02    0.11151E-03   -0.16640E-03   438   0.172E-01    0.907E-02
DAV:   4    -0.240247958476E+02   -0.92474E-04   -0.60742E-05   429   0.434E-02    0.970E-02
DAV:   5    -0.240247590917E+02    0.36756E-04   -0.41433E-06   429   0.181E-02    0.851E-02
DAV:   6    -0.240247355603E+02    0.23531E-04   -0.21509E-04   432   0.275E-02    0.378E-02
DAV:   7    -0.240247602575E+02   -0.24697E-04   -0.11565E-05   468   0.189E-02    0.329E-02
DAV:   8    -0.240247669059E+02   -0.66484E-05   -0.59619E-05   408   0.270E-02    0.152E-02
DAV:   9    -0.240247702137E+02   -0.33077E-05   -0.82899E-07   462   0.932E-03    0.180E-02
DAV:  10    -0.240247684718E+02    0.17419E-05   -0.49208E-06   467   0.693E-03    0.798E-03
DAV:  11    -0.240247708043E+02   -0.23325E-05   -0.75894E-06   429   0.677E-03    0.973E-03
DAV:  12    -0.240247730869E+02   -0.22826E-05   -0.93861E-06   423   0.676E-03    0.649E-03
DAV:  13    -0.240247735864E+02   -0.49954E-06   -0.66105E-07   453   0.629E-03
   3 F= -.24024774E+02 E0= -.24030012E+02  d E =-.113698E-01  mag=     0.1166
 curvature:  -0.32 expect dE=-0.233E-05 dE for cont linesearch -0.518E-11
 trial: gam= 0.00023 g(F)=  0.720E-05 g(S)=  0.000E+00 ort =-0.737E-06 (trialstep = 0.932E+00)
 search vector abs. value=  0.721E-05
 reached required accuracy - stopping structural energy minimisation
