<?xml version="1.0" encoding="ISO-8859-1"?>
<modeling>
 <generator>
  <i name="program" type="string">vasp </i>
  <i name="version" type="string">5.3.3  </i>
  <i name="subversion" type="string">18Dez12 (build Aug 26 2015 16:06:49) complex                          parallel </i>
  <i name="platform" type="string">LinuxIFC </i>
  <i name="date" type="string">2020 05 07 </i>
  <i name="time" type="string">16:10:37 </i>
 </generator>
 <incar>
  <i type="string" name="SYSTEM"> Beta12Borophene !The name of the system</i>
  <i type="string" name="PREC">normal   !normal or accurate</i>
  <i type="string" name="ALGO"> Normal   !def=Normal. Sets IALGO and LD</i>
  <i type="int" name="ISPIN">     2</i>
  <i type="int" name="NELM">    60</i>
  <i type="int" name="IBRION">     2</i>
  <i name="EDIFF">      0.00000100</i>
  <i name="EDIFFG">     -0.01000000</i>
  <i type="int" name="NSW">  1000</i>
  <i type="int" name="ISIF">     2</i>
  <i name="ENCUT">    500.00000000</i>
  <i name="POTIM">      0.50000000</i>
  <i type="string" name="LREAL"> Auto   !values=.FALSE. or Auto  (def=.F</i>
  <i type="int" name="ISMEAR">     1</i>
  <i name="SIGMA">      0.10000000</i>
  <i type="logical" name="LWAVE"> F  </i>
  <i type="logical" name="LCHARG"> F  </i>
  <i type="logical" name="LVTOT"> F  </i>
  <i type="logical" name="LELF"> F  </i>
  <i type="int" name="NELM">    60</i>
  <i type="string" name="GGA"> PE   !GGA flavor: PE=PBE, RP=RPBE, RE=r</i>
  <i type="logical" name="LDIPOL"> T  </i>
  <i type="int" name="IDIPOL">     3</i>
 </incar>
 <kpoints>
  <generation param="Monkhorst-Pack">
   <v type="int" name="divisions">       3        3        2 </v>
   <v name="usershift">      0.00000000       0.00000000       0.00000000 </v>
   <v name="genvec1">      0.33333333       0.00000000       0.00000000 </v>
   <v name="genvec2">      0.00000000       0.33333333       0.00000000 </v>
   <v name="genvec3">      0.00000000       0.00000000       0.50000000 </v>
   <v name="shift">      0.00000000       0.00000000       0.50000000 </v>
  </generation>
  <varray name="kpointlist" >
   <v>       0.00000000       0.00000000       0.25000000 </v>
   <v>       0.33333333       0.00000000       0.25000000 </v>
   <v>      -0.33333333       0.00000000       0.25000000 </v>
   <v>       0.00000000       0.33333333       0.25000000 </v>
   <v>       0.33333333       0.33333333       0.25000000 </v>
   <v>      -0.33333333       0.33333333       0.25000000 </v>
   <v>       0.00000000      -0.33333333       0.25000000 </v>
   <v>       0.33333333      -0.33333333       0.25000000 </v>
   <v>      -0.33333333      -0.33333333       0.25000000 </v>
  </varray>
  <varray name="weights" >
   <v>       0.11111111 </v>
   <v>       0.11111111 </v>
   <v>       0.11111111 </v>
   <v>       0.11111111 </v>
   <v>       0.11111111 </v>
   <v>       0.11111111 </v>
   <v>       0.11111111 </v>
   <v>       0.11111111 </v>
   <v>       0.11111111 </v>
  </varray>
 </kpoints>
 <parameters>
  <separator name="general" >
   <i type="string" name="SYSTEM">Beta12Borophene !The name of the system</i>
   <i type="logical" name="LCOMPAT"> F  </i>
  </separator>
  <separator name="electronic" >
   <i type="string" name="PREC">normal</i>
   <i name="ENMAX">    500.00000000</i>
   <i name="ENAUG">    644.87300000</i>
   <i name="EDIFF">      0.00000100</i>
   <i type="int" name="IALGO">    38</i>
   <i type="int" name="IWAVPR">    11</i>
   <i type="int" name="NBANDS">    11</i>
   <i name="NELECT">      8.00000000</i>
   <i type="int" name="TURBO">     0</i>
   <i type="int" name="IRESTART">     0</i>
   <i type="int" name="NREBOOT">     0</i>
   <i type="int" name="NMIN">     0</i>
   <i name="EREF">      0.00000000</i>
   <separator name="electronic smearing" >
    <i type="int" name="ISMEAR">     1</i>
    <i name="SIGMA">      0.10000000</i>
    <i name="KSPACING">      0.50000000</i>
    <i type="logical" name="KGAMMA"> T  </i>
   </separator>
   <separator name="electronic projectors" >
    <i type="logical" name="LREAL"> T  </i>
    <v name="ROPT">     -0.00050000     -0.00050000</v>
    <i type="int" name="LMAXPAW">  -100</i>
    <i type="int" name="LMAXMIX">     2</i>
    <i type="logical" name="NLSPLINE"> F  </i>
   </separator>
   <separator name="electronic startup" >
    <i type="int" name="ISTART">     0</i>
    <i type="int" name="ICHARG">     2</i>
    <i type="int" name="INIWAV">     1</i>
   </separator>
   <separator name="electronic spin" >
    <i type="int" name="ISPIN">     2</i>
    <i type="logical" name="LNONCOLLINEAR"> F  </i>
    <v name="MAGMOM">      1.00000000      1.00000000      1.00000000      1.00000000      1.00000000</v>
    <i name="NUPDOWN">     -1.00000000</i>
    <i type="logical" name="LSORBIT"> F  </i>
    <v name="SAXIS">      0.00000000      0.00000000      1.00000000</v>
    <i type="logical" name="LSPIRAL"> F  </i>
    <v name="QSPIRAL">      0.00000000      0.00000000      0.00000000</v>
    <i type="logical" name="LZEROZ"> F  </i>
   </separator>
   <separator name="electronic exchange-correlation" >
    <i type="logical" name="LASPH"> F  </i>
    <i type="logical" name="LMETAGGA"> F  </i>
   </separator>
   <separator name="electronic convergence" >
    <i type="int" name="NELM">    60</i>
    <i type="int" name="NELMDL">    -5</i>
    <i type="int" name="NELMIN">     2</i>
    <i name="ENINI">    500.00000000</i>
    <separator name="electronic convergence detail" >
     <i type="logical" name="LDIAG"> T  </i>
     <i type="logical" name="LSUBROT"> T  </i>
     <i name="WEIMIN">      0.00100000</i>
     <i name="EBREAK">      0.00000002</i>
     <i name="DEPER">      0.30000000</i>
     <i type="int" name="NRMM">     4</i>
     <i name="TIME">      0.40000000</i>
    </separator>
   </separator>
   <separator name="electronic mixer" >
    <i name="AMIX">      0.40000000</i>
    <i name="BMIX">      1.00000000</i>
    <i name="AMIN">      0.10000000</i>
    <i name="AMIX_MAG">      1.60000000</i>
    <i name="BMIX_MAG">      1.00000000</i>
    <separator name="electronic mixer details" >
     <i type="int" name="IMIX">     4</i>
     <i type="int" name="MAXMIX">   -45</i>
     <i name="WC">    100.00000000</i>
     <i type="int" name="INIMIX">     1</i>
     <i type="int" name="MIXPRE">     1</i>
     <i type="int" name="MREMOVE">     5</i>
    </separator>
   </separator>
   <separator name="electronic dipolcorrection" >
    <i type="logical" name="LDIPOL"> T  </i>
    <i type="logical" name="LMONO"> F  </i>
    <i type="int" name="IDIPOL">     3</i>
    <i name="EPSILON">      1.00000000</i>
    <v name="DIPOL">   -100.00000000   -100.00000000   -100.00000000</v>
    <i name="EFIELD">      0.00000000</i>
   </separator>
  </separator>
  <separator name="grids" >
   <i type="int" name="NGX">    56</i>
   <i type="int" name="NGY">    64</i>
   <i type="int" name="NGZ">    84</i>
   <i type="int" name="NGXF">   112</i>
   <i type="int" name="NGYF">   128</i>
   <i type="int" name="NGZF">   168</i>
   <i type="logical" name="ADDGRID"> F  </i>
  </separator>
  <separator name="ionic" >
   <i type="int" name="NSW">  1000</i>
   <i type="int" name="IBRION">     2</i>
   <i type="int" name="ISIF">     2</i>
   <i name="PSTRESS">      0.00000000</i>
   <i name="EDIFFG">     -0.01000000</i>
   <i type="int" name="NFREE">     1</i>
   <i name="POTIM">      0.50000000</i>
   <i name="SMASS">     -3.00000000</i>
   <i name="SCALEE">      1.00000000</i>
  </separator>
  <separator name="ionic md" >
   <i name="TEBEG">      0.00010000</i>
   <i name="TEEND">      0.00010000</i>
   <i type="int" name="NBLOCK">     1</i>
   <i type="int" name="KBLOCK">  1000</i>
   <i type="int" name="NPACO">   256</i>
   <i name="APACO">     16.00000000</i>
  </separator>
  <separator name="symmetry" >
   <i type="int" name="ISYM">     2</i>
   <i name="SYMPREC">      0.00001000</i>
  </separator>
  <separator name="dos" >
   <i type="logical" name="LORBIT"> F  </i>
   <v name="RWIGS">     -1.00000000     -1.00000000</v>
   <i type="int" name="NEDOS">   301</i>
   <i name="EMIN">     10.00000000</i>
   <i name="EMAX">    -10.00000000</i>
   <i name="EFERMI">      0.00000000</i>
  </separator>
  <separator name="writing" >
   <i type="int" name="NWRITE">     2</i>
   <i type="logical" name="LWAVE"> F  </i>
   <i type="logical" name="LCHARG"> F  </i>
   <i type="logical" name="LPARD"> F  </i>
   <i type="logical" name="LVTOT"> F  </i>
   <i type="logical" name="LVHAR"> F  </i>
   <i type="logical" name="LELF"> F  </i>
   <i type="logical" name="LOPTICS"> F  </i>
   <v name="STM">      0.00000000      0.00000000      0.00000000      0.00000000      0.00000000      0.00000000      0.00000000</v>
  </separator>
  <separator name="performance" >
   <i type="int" name="NPAR">     1</i>
   <i type="int" name="NSIM">     4</i>
   <i type="int" name="NBLK">    -1</i>
   <i type="logical" name="LPLANE"> T  </i>
   <i type="logical" name="LSCALAPACK"> T  </i>
   <i type="logical" name="LSCAAWARE"> F  </i>
   <i type="logical" name="LSCALU"> F  </i>
   <i type="logical" name="LASYNC"> F  </i>
   <i type="logical" name="LORBITALREAL"> F  </i>
  </separator>
  <separator name="miscellaneous" >
   <i type="int" name="IDIOT">     3</i>
   <i type="logical" name="LMUSIC"> F  </i>
   <v name="POMASS">     12.01100000      1.00000000</v>
   <v name="DARWINR">      0.00000000      0.00000000</v>
   <v name="DARWINV">      1.00000000      1.00000000</v>
   <i type="logical" name="LCORR"> T  </i>
  </separator>
  <i type="logical" name="GGA_COMPAT"> T  </i>
  <i type="logical" name="LBERRY"> F  </i>
  <i type="int" name="ICORELEVEL">     0</i>
  <i type="logical" name="LDAU"> F  </i>
  <i type="int" name="I_CONSTRAINED_M">     0</i>
  <separator name="electronic exchange-correlation" >
   <i type="string" name="GGA">PE</i>
   <i type="int" name="VOSKOWN">     0</i>
   <i type="logical" name="LHFCALC"> F  </i>
   <i type="string" name="PRECFOCK"></i>
   <i type="logical" name="LSYMGRAD"> F  </i>
   <i type="logical" name="LHFONE"> F  </i>
   <i type="logical" name="LRHFCALC"> F  </i>
   <i type="logical" name="LTHOMAS"> F  </i>
   <i type="logical" name="LMODELHF"> F  </i>
   <i name="ENCUT4O">     -1.00000000</i>
   <i type="int" name="EXXOEP">     0</i>
   <i type="int" name="FOURORBIT">     0</i>
   <i name="AEXX">      0.00000000</i>
   <i name="HFALPHA">      0.00000000</i>
   <i name="MCALPHA">      0.00000000</i>
   <i name="ALDAX">      1.00000000</i>
   <i name="AGGAX">      1.00000000</i>
   <i name="ALDAC">      1.00000000</i>
   <i name="AGGAC">      1.00000000</i>
   <i type="int" name="NKREDX">     1</i>
   <i type="int" name="NKREDY">     1</i>
   <i type="int" name="NKREDZ">     1</i>
   <i type="logical" name="SHIFTRED"> F  </i>
   <i type="logical" name="ODDONLY"> F  </i>
   <i type="logical" name="EVENONLY"> F  </i>
   <i type="int" name="LMAXFOCK">     0</i>
   <i type="int" name="NMAXFOCKAE">     0</i>
   <i type="logical" name="LFOCKAEDFT"> F  </i>
   <i name="HFSCREEN">      0.00000000</i>
   <i name="HFSCREENC">      0.00000000</i>
   <i type="int" name="NBANDSGWLOW">     0</i>
  </separator>
  <separator name="vdW DFT" >
   <i type="logical" name="LUSE_VDW"> F  </i>
   <i name="Zab_VDW">     -0.84910000</i>
   <i name="PARAM1">      0.12340000</i>
   <i name="PARAM2">      1.00000000</i>
   <i name="PARAM3">      0.00000000</i>
  </separator>
  <separator name="model GW" >
   <i type="int" name="MODEL_GW">     0</i>
   <i name="MODEL_EPS0">    215.06688000</i>
   <i name="MODEL_ALPHA">      1.00000000</i>
  </separator>
  <separator name="linear response parameters" >
   <i type="logical" name="LEPSILON"> F  </i>
   <i type="logical" name="LRPA"> F  </i>
   <i type="logical" name="LNABLA"> F  </i>
   <i type="logical" name="LVEL"> F  </i>
   <i type="int" name="KINTER">     0</i>
   <i name="CSHIFT">      0.10000000</i>
   <i name="OMEGAMAX">     -1.00000000</i>
   <i name="DEG_THRESHOLD">      0.00200000</i>
  </separator>
  <separator name="orbital magnetization" >
   <i type="logical" name="NUCIND"> F  </i>
   <v name="MAGPOS">      0.00000000      0.00000000      0.00000000</v>
   <i type="logical" name="LNICSALL"> T  </i>
   <i type="logical" name="ORBITALMAG"> F  </i>
   <i type="logical" name="LMAGBLOCH"> F  </i>
   <i type="logical" name="LCHIMAG"> F  </i>
   <i type="logical" name="LGAUGE"> T  </i>
   <i type="int" name="MAGATOM">     0</i>
   <v name="MAGDIPOL">      0.00000000      0.00000000      0.00000000</v>
   <v name="AVECCONST">      0.00000000      0.00000000      0.00000000</v>
  </separator>
  <separator name="response functions" >
   <i type="logical" name="LADDER"> F  </i>
   <i type="logical" name="LFXC"> F  </i>
   <i type="logical" name="LHARTREE"> T  </i>
   <i type="int" name="IBSE">     0</i>
   <i type="logical" name="LTCTE"> F  </i>
   <i type="logical" name="LTETE"> F  </i>
   <i type="logical" name="LTRIPLET"> F  </i>
   <i type="logical" name="LFXCEPS"> F  </i>
   <i type="logical" name="L2ORDER"> F  </i>
   <i type="logical" name="LUSEW"> F  </i>
   <i name="ENCUTGW">     -2.00000000</i>
   <i name="ENCUTGWSOFT">     -2.00000000</i>
   <i name="ENCUTLF">     -1.00000000</i>
   <i type="int" name="LMAXMP2">    -1</i>
   <i name="SCISSOR">      0.00000000</i>
   <i type="int" name="NOMEGA">     0</i>
   <i type="int" name="NOMEGAR">     0</i>
   <i type="int" name="NBANDSGW">    -1</i>
   <i type="int" name="NBANDSO">    -1</i>
   <i type="int" name="NBANDSV">    -1</i>
   <i type="int" name="NELM">    60</i>
   <i type="int" name="DIM">     3</i>
   <i type="int" name="ANTIRES">     0</i>
   <i name="OMEGAMAX">    -30.00000000</i>
   <i name="OMEGATL">   -200.00000000</i>
   <i type="int" name="OMEGAGRID">     0</i>
   <i name="CSHIFT">     -0.10000000</i>
   <i type="logical" name="SELFENERGY"> F  </i>
   <i type="logical" name="LSPECTRAL"> F  </i>
   <i type="logical" name="ODDONLYGW"> F  </i>
   <i type="logical" name="EVENONLYGW"> F  </i>
   <i type="int" name="NKREDLFX">     1</i>
   <i type="int" name="NKREDLFY">     1</i>
   <i type="int" name="NKREDLFZ">     1</i>
   <i type="int" name="MAXMEM">  1800</i>
   <i type="int" name="TELESCOPE">     0</i>
  </separator>
 </parameters>
 <atominfo>
  <atoms>       5 </atoms>
  <types>       2 </types>
  <array name="atoms" >
   <dimension dim="1">ion</dimension>
   <field type="string">element</field>
   <field type="int">atomtype</field>
   <set>
    <rc><c>C </c><c>   1</c></rc>
    <rc><c>H </c><c>   2</c></rc>
    <rc><c>H </c><c>   2</c></rc>
    <rc><c>H </c><c>   2</c></rc>
    <rc><c>H </c><c>   2</c></rc>
   </set>
  </array>
  <array name="atomtypes" >
   <dimension dim="1">type</dimension>
   <field type="int">atomspertype</field>
   <field type="string">element</field>
   <field>mass</field>
   <field>valence</field>
   <field type="string">pseudopotential</field>
   <set>
    <rc><c>   1</c><c>C </c><c>     12.01100000</c><c>      4.00000000</c><c>  PAW_PBE C 08Apr2002                   </c></rc>
    <rc><c>   4</c><c>H </c><c>      1.00000000</c><c>      1.00000000</c><c>  PAW_PBE H 15Jun2001                   </c></rc>
   </set>
  </array>
 </atominfo>
 <structure name="initialpos" >
  <crystal>
   <varray name="basis" >
    <v>      10.16000000       0.00000000       0.00000000 </v>
    <v>       0.00000000      11.76000000       0.00000000 </v>
    <v>       0.00000000       0.00000000      15.00000000 </v>
   </varray>
   <i name="volume">   1792.22400000 </i>
   <varray name="rec_basis" >
    <v>       0.09842520       0.00000000       0.00000000 </v>
    <v>       0.00000000       0.08503401       0.00000000 </v>
    <v>       0.00000000       0.00000000       0.06666667 </v>
   </varray>
  </crystal>
  <varray name="positions" >
   <v>       0.00000000       0.00000000       0.00000000 </v>
   <v>       0.10919000       0.00000000       0.00000000 </v>
   <v>       0.96360000       0.05232000       0.05639000 </v>
   <v>       0.96360000       0.91155000       0.00733000 </v>
   <v>       0.96360000       0.03613000       0.93628000 </v>
  </varray>
 </structure>
 <calculation>
  <scstep>
   <time name="dav">    4.15    4.17</time>
   <time name="total">    5.51    5.52</time>
   <dipole>
    <v name="dipole">      0.00000000       0.00000000       0.00000505 </v>
    <i name="Tr[quadrupol]">     -1.56323762 </i>
    <i name="Echarged">      0.00000000 </i>
    <i name="Edipol_quadrupol">      0.00000000 </i>
    <i name="Eion">      0.00000000 </i>
   </dipole>
   <energy>
    <i name="alphaZ">      0.13516807 </i>
    <i name="ewald">    152.84252707 </i>
    <i name="hartreedc">   -268.64528960 </i>
    <i name="XCdc">     23.49922024 </i>
    <i name="pawpsdc">    115.57111737 </i>
    <i name="pawaedc">   -116.16515559 </i>
    <i name="eentropy">     -0.00040944 </i>
    <i name="bandstr">    -48.16759181 </i>
    <i name="atom">    197.09414118 </i>
    <i name="e_fr_energy">     56.16372747 </i>
    <i name="e_wo_entrp">     56.16413691 </i>
    <i name="e_0_energy">     56.16386395 </i>
   </energy>
  </scstep>
  <scstep>
   <time name="dav">    6.44    6.44</time>
   <time name="total">    6.44    6.45</time>
   <dipole>
    <v name="dipole">      0.00000000       0.00000000       0.00000505 </v>
    <i name="Tr[quadrupol]">     -1.56323762 </i>
    <i name="Echarged">      0.00000000 </i>
    <i name="Edipol_quadrupol">      0.00000000 </i>
    <i name="Eion">      0.00000000 </i>
   </dipole>
   <energy>
    <i name="e_fr_energy">     -3.46256534 </i>
    <i name="e_wo_entrp">     -3.46288745 </i>
    <i name="e_0_energy">     -3.46267271 </i>
   </energy>
  </scstep>
  <scstep>
   <time name="dav">    4.92    4.92</time>
   <time name="total">    4.92    4.92</time>
   <dipole>
    <v name="dipole">      0.00000000       0.00000000       0.00000505 </v>
    <i name="Tr[quadrupol]">     -1.56323762 </i>
    <i name="Echarged">      0.00000000 </i>
    <i name="Edipol_quadrupol">      0.00000000 </i>
    <i name="Eion">      0.00000000 </i>
   </dipole>
   <energy>
    <i name="e_fr_energy">    -18.82074528 </i>
    <i name="e_wo_entrp">    -18.82110621 </i>
    <i name="e_0_energy">    -18.82086559 </i>
   </energy>
  </scstep>
  <scstep>
   <time name="dav">    6.11    6.11</time>
   <time name="total">    6.11    6.12</time>
   <dipole>
    <v name="dipole">      0.00000000       0.00000000       0.00000505 </v>
    <i name="Tr[quadrupol]">     -1.56323762 </i>
    <i name="Echarged">      0.00000000 </i>
    <i name="Edipol_quadrupol">      0.00000000 </i>
    <i name="Eion">      0.00000000 </i>
   </dipole>
   <energy>
    <i name="e_fr_energy">    -19.80118196 </i>
    <i name="e_wo_entrp">    -19.80990664 </i>
    <i name="e_0_energy">    -19.80409019 </i>
   </energy>
  </scstep>
  <scstep>
   <time name="dav">    4.03    4.03</time>
   <time name="total">    4.18    4.18</time>
   <dipole>
    <v name="dipole">      0.00000000       0.00000000       0.00000505 </v>
    <i name="Tr[quadrupol]">     -1.56323762 </i>
    <i name="Echarged">      0.00000000 </i>
    <i name="Edipol_quadrupol">      0.00000000 </i>
    <i name="Eion">      0.00000000 </i>
   </dipole>
   <energy>
    <i name="e_fr_energy">    -19.81176649 </i>
    <i name="e_wo_entrp">    -19.82046348 </i>
    <i name="e_0_energy">    -19.81466549 </i>
   </energy>
  </scstep>
  <scstep>
   <time name="dav">    2.93    2.93</time>
   <time name="total">    3.94    3.94</time>
   <dipole>
    <v name="dipole">      0.00000000       0.00000000       0.00174608 </v>
    <i name="Tr[quadrupol]">     -1.68704715 </i>
    <i name="Echarged">      0.00000000 </i>
    <i name="Edipol_quadrupol">      0.00000000 </i>
    <i name="Eion">      0.00000000 </i>
   </dipole>
   <energy>
    <i name="e_fr_energy">     -8.18913519 </i>
    <i name="e_wo_entrp">     -8.19785046 </i>
    <i name="e_0_energy">     -8.19204028 </i>
   </energy>
  </scstep>
  <scstep>
   <time name="dav">    2.92    2.92</time>
   <time name="total">    3.87    3.88</time>
   <dipole>
    <v name="dipole">      0.00000000       0.00000000       0.00313514 </v>
    <i name="Tr[quadrupol]">     -1.77024865 </i>
    <i name="Echarged">      0.00000000 </i>
    <i name="Edipol_quadrupol">      0.00000000 </i>
    <i name="Eion">      0.00000000 </i>
   </dipole>
   <energy>
    <i name="e_fr_energy">    -18.27682450 </i>
    <i name="e_wo_entrp">    -18.28552446 </i>
    <i name="e_0_energy">    -18.27972448 </i>
   </energy>
  </scstep>
  <scstep>
   <time name="dav">    2.85    2.85</time>
   <time name="total">    3.82    3.83</time>
   <dipole>
    <v name="dipole">      0.00000000       0.00000000       0.00303964 </v>
    <i name="Tr[quadrupol]">     -1.84654279 </i>
    <i name="Echarged">      0.00000000 </i>
    <i name="Edipol_quadrupol">      0.00000000 </i>
    <i name="Eion">      0.00000000 </i>
   </dipole>
   <energy>
    <i name="e_fr_energy">    -20.14325992 </i>
    <i name="e_wo_entrp">    -20.15196559 </i>
    <i name="e_0_energy">    -20.14616181 </i>
   </energy>
  </scstep>
  <scstep>
   <time name="dav">    2.63    2.63</time>
   <time name="total">    3.60    3.60</time>
   <dipole>
    <v name="dipole">      0.00000000       0.00000000       0.00124164 </v>
    <i name="Tr[quadrupol]">     -1.94477311 </i>
    <i name="Echarged">      0.00000000 </i>
    <i name="Edipol_quadrupol">      0.00000000 </i>
    <i name="Eion">      0.00000000 </i>
   </dipole>
   <energy>
    <i name="e_fr_energy">    -22.81960734 </i>
    <i name="e_wo_entrp">    -22.83887374 </i>
    <i name="e_0_energy">    -22.82602948 </i>
   </energy>
  </scstep>
  <scstep>
   <time name="dav">    3.06    3.06</time>
   <time name="total">    4.00    4.01</time>
   <dipole>
    <v name="dipole">      0.00000000       0.00000000       0.00054849 </v>
    <i name="Tr[quadrupol]">     -1.98870263 </i>
    <i name="Echarged">      0.00000000 </i>
    <i name="Edipol_quadrupol">      0.00000000 </i>
    <i name="Eion">      0.00000000 </i>
   </dipole>
   <energy>
    <i name="e_fr_energy">    -23.41874616 </i>
    <i name="e_wo_entrp">    -23.42829236 </i>
    <i name="e_0_energy">    -23.42192823 </i>
   </energy>
  </scstep>
  <scstep>
   <time name="dav">    2.63    2.63</time>
   <time name="total">    3.58    3.58</time>
   <dipole>
    <v name="dipole">      0.00000000       0.00000000       0.00013280 </v>
    <i name="Tr[quadrupol]">     -2.03581466 </i>
    <i name="Echarged">      0.00000000 </i>
    <i name="Edipol_quadrupol">      0.00000000 </i>
    <i name="Eion">      0.00000000 </i>
   </dipole>
   <energy>
    <i name="e_fr_energy">    -23.57989405 </i>
    <i name="e_wo_entrp">    -23.59578147 </i>
    <i name="e_0_energy">    -23.58518986 </i>
   </energy>
  </scstep>
  <scstep>
   <time name="dav">    2.50    2.50</time>
   <time name="total">    3.46    3.47</time>
   <dipole>
    <v name="dipole">      0.00000000       0.00000000      -0.00021133 </v>
    <i name="Tr[quadrupol]">     -2.11080372 </i>
    <i name="Echarged">      0.00000000 </i>
    <i name="Edipol_quadrupol">      0.00000000 </i>
    <i name="Eion">      0.00000000 </i>
   </dipole>
   <energy>
    <i name="e_fr_energy">    -23.71944816 </i>
    <i name="e_wo_entrp">    -23.73598933 </i>
    <i name="e_0_energy">    -23.72496188 </i>
   </energy>
  </scstep>
  <scstep>
   <time name="dav">    3.00    3.00</time>
   <time name="total">    3.96    3.96</time>
   <dipole>
    <v name="dipole">      0.00000000       0.00000000      -0.00052604 </v>
    <i name="Tr[quadrupol]">     -2.12527244 </i>
    <i name="Echarged">      0.00000000 </i>
    <i name="Edipol_quadrupol">      0.00000000 </i>
    <i name="Eion">      0.00000000 </i>
   </dipole>
   <energy>
    <i name="e_fr_energy">    -23.73460058 </i>
    <i name="e_wo_entrp">    -23.75105568 </i>
    <i name="e_0_energy">    -23.74008561 </i>
   </energy>
  </scstep>
  <scstep>
   <time name="dav">    2.41    2.41</time>
   <time name="total">    3.37    3.38</time>
   <dipole>
    <v name="dipole">      0.00000000       0.00000000      -0.00018857 </v>
    <i name="Tr[quadrupol]">     -2.14891552 </i>
    <i name="Echarged">      0.00000000 </i>
    <i name="Edipol_quadrupol">      0.00000000 </i>
    <i name="Eion">      0.00000000 </i>
   </dipole>
   <energy>
    <i name="e_fr_energy">    -23.75602838 </i>
    <i name="e_wo_entrp">    -23.77204246 </i>
    <i name="e_0_energy">    -23.76136641 </i>
   </energy>
  </scstep>
  <scstep>
   <time name="dav">    2.82    2.82</time>
   <time name="total">    3.77    3.78</time>
   <dipole>
    <v name="dipole">      0.00000000       0.00000000       0.00035613 </v>
    <i name="Tr[quadrupol]">     -2.20553410 </i>
    <i name="Echarged">      0.00000000 </i>
    <i name="Edipol_quadrupol">      0.00000000 </i>
    <i name="Eion">      0.00000000 </i>
   </dipole>
   <energy>
    <i name="e_fr_energy">    -23.93845981 </i>
    <i name="e_wo_entrp">    -23.95550282 </i>
    <i name="e_0_energy">    -23.94414081 </i>
   </energy>
  </scstep>
  <scstep>
   <time name="dav">    2.70    2.70</time>
   <time name="total">    3.66    3.66</time>
   <dipole>
    <v name="dipole">      0.00000000       0.00000000       0.00009134 </v>
    <i name="Tr[quadrupol]">     -2.22579552 </i>
    <i name="Echarged">      0.00000000 </i>
    <i name="Edipol_quadrupol">      0.00000000 </i>
    <i name="Eion">      0.00000000 </i>
   </dipole>
   <energy>
    <i name="e_fr_energy">    -23.96779339 </i>
    <i name="e_wo_entrp">    -23.98389939 </i>
    <i name="e_0_energy">    -23.97316206 </i>
   </energy>
  </scstep>
  <scstep>
   <time name="dav">    2.98    2.98</time>
   <time name="total">    3.95    3.96</time>
   <dipole>
    <v name="dipole">      0.00000000       0.00000000      -0.00011363 </v>
    <i name="Tr[quadrupol]">     -2.23163325 </i>
    <i name="Echarged">      0.00000000 </i>
    <i name="Edipol_quadrupol">      0.00000000 </i>
    <i name="Eion">      0.00000000 </i>
   </dipole>
   <energy>
    <i name="e_fr_energy">    -23.97219481 </i>
    <i name="e_wo_entrp">    -23.98848804 </i>
    <i name="e_0_energy">    -23.97762588 </i>
   </energy>
  </scstep>
  <scstep>
   <time name="dav">    2.51    2.51</time>
   <time name="total">    3.48    3.48</time>
   <dipole>
    <v name="dipole">      0.00000000       0.00000000       0.00008130 </v>
    <i name="Tr[quadrupol]">     -2.24808988 </i>
    <i name="Echarged">      0.00000000 </i>
    <i name="Edipol_quadrupol">      0.00000000 </i>
    <i name="Eion">      0.00000000 </i>
   </dipole>
   <energy>
    <i name="e_fr_energy">    -23.98798343 </i>
    <i name="e_wo_entrp">    -24.00344330 </i>
    <i name="e_0_energy">    -23.99313672 </i>
   </energy>
  </scstep>
  <scstep>
   <time name="dav">    2.49    2.49</time>
   <time name="total">    3.46    3.46</time>
   <dipole>
    <v name="dipole">      0.00000000       0.00000000       0.00001239 </v>
    <i name="Tr[quadrupol]">     -2.29165942 </i>
    <i name="Echarged">      0.00000000 </i>
    <i name="Edipol_quadrupol">      0.00000000 </i>
    <i name="Eion">      0.00000000 </i>
   </dipole>
   <energy>
    <i name="e_fr_energy">    -24.00453289 </i>
    <i name="e_wo_entrp">    -24.02052396 </i>
    <i name="e_0_energy">    -24.00986325 </i>
   </energy>
  </scstep>
  <scstep>
   <time name="dav">    2.80    2.80</time>
   <time name="total">    3.77    3.78</time>
   <dipole>
    <v name="dipole">      0.00000000       0.00000000       0.00016839 </v>
    <i name="Tr[quadrupol]">     -2.30790328 </i>
    <i name="Echarged">      0.00000000 </i>
    <i name="Edipol_quadrupol">      0.00000000 </i>
    <i name="Eion">      0.00000000 </i>
   </dipole>
   <energy>
    <i name="e_fr_energy">    -24.00628024 </i>
    <i name="e_wo_entrp">    -24.02210805 </i>
    <i name="e_0_energy">    -24.01155618 </i>
   </energy>
  </scstep>
  <scstep>
   <time name="dav">    2.66    2.66</time>
   <time name="total">    3.71    3.72</time>
   <dipole>
    <v name="dipole">      0.00000000       0.00000000       0.00029086 </v>
    <i name="Tr[quadrupol]">     -2.32187794 </i>
    <i name="Echarged">      0.00000000 </i>
    <i name="Edipol_quadrupol">      0.00000000 </i>
    <i name="Eion">      0.00000000 </i>
   </dipole>
   <energy>
    <i name="e_fr_energy">    -24.00701522 </i>
    <i name="e_wo_entrp">    -24.02293316 </i>
    <i name="e_0_energy">    -24.01232120 </i>
   </energy>
  </scstep>
  <scstep>
   <time name="dav">    3.50    3.71</time>
   <time name="total">    4.74    4.96</time>
   <dipole>
    <v name="dipole">      0.00000000       0.00000000       0.00013154 </v>
    <i name="Tr[quadrupol]">     -2.34731276 </i>
    <i name="Echarged">      0.00000000 </i>
    <i name="Edipol_quadrupol">      0.00000000 </i>
    <i name="Eion">      0.00000000 </i>
   </dipole>
   <energy>
    <i name="e_fr_energy">    -24.00739655 </i>
    <i name="e_wo_entrp">    -24.02314977 </i>
    <i name="e_0_energy">    -24.01264762 </i>
   </energy>
  </scstep>
  <scstep>
   <time name="dav">    2.65    2.65</time>
   <time name="total">    3.64    3.65</time>
   <dipole>
    <v name="dipole">      0.00000000       0.00000000       0.00011772 </v>
    <i name="Tr[quadrupol]">     -2.34815327 </i>
    <i name="Echarged">      0.00000000 </i>
    <i name="Edipol_quadrupol">      0.00000000 </i>
    <i name="Eion">      0.00000000 </i>
   </dipole>
   <energy>
    <i name="e_fr_energy">    -24.00749320 </i>
    <i name="e_wo_entrp">    -24.02325129 </i>
    <i name="e_0_energy">    -24.01274590 </i>
   </energy>
  </scstep>
  <scstep>
   <time name="dav">    2.52    2.52</time>
   <time name="total">    3.52    3.52</time>
   <dipole>
    <v name="dipole">      0.00000000       0.00000000       0.00010559 </v>
    <i name="Tr[quadrupol]">     -2.36543691 </i>
    <i name="Echarged">      0.00000000 </i>
    <i name="Edipol_quadrupol">      0.00000000 </i>
    <i name="Eion">      0.00000000 </i>
   </dipole>
   <energy>
    <i name="e_fr_energy">    -24.00816632 </i>
    <i name="e_wo_entrp">    -24.02398892 </i>
    <i name="e_0_energy">    -24.01344052 </i>
   </energy>
  </scstep>
  <scstep>
   <time name="dav">    3.20    3.22</time>
   <time name="total">    4.42    4.44</time>
   <dipole>
    <v name="dipole">      0.00000000       0.00000000       0.00008708 </v>
    <i name="Tr[quadrupol]">     -2.40975625 </i>
    <i name="Echarged">      0.00000000 </i>
    <i name="Edipol_quadrupol">      0.00000000 </i>
    <i name="Eion">      0.00000000 </i>
   </dipole>
   <energy>
    <i name="e_fr_energy">    -24.00810606 </i>
    <i name="e_wo_entrp">    -24.02376618 </i>
    <i name="e_0_energy">    -24.01332610 </i>
   </energy>
  </scstep>
  <scstep>
   <time name="dav">    3.67    3.67</time>
   <time name="total">    5.09    5.10</time>
   <dipole>
    <v name="dipole">      0.00000000       0.00000000       0.00322371 </v>
    <i name="Tr[quadrupol]">     -2.43882627 </i>
    <i name="Echarged">      0.00000000 </i>
    <i name="Edipol_quadrupol">      0.00000000 </i>
    <i name="Eion">      0.00000000 </i>
   </dipole>
   <energy>
    <i name="e_fr_energy">    -24.00958035 </i>
    <i name="e_wo_entrp">    -24.02538273 </i>
    <i name="e_0_energy">    -24.01484781 </i>
   </energy>
  </scstep>
  <scstep>
   <time name="dav">    3.42    3.42</time>
   <time name="total">    4.77    4.78</time>
   <dipole>
    <v name="dipole">      0.00000000       0.00000000       0.00394732 </v>
    <i name="Tr[quadrupol]">     -2.46361412 </i>
    <i name="Echarged">      0.00000000 </i>
    <i name="Edipol_quadrupol">      0.00000000 </i>
    <i name="Eion">      0.00000000 </i>
   </dipole>
   <energy>
    <i name="e_fr_energy">    -24.01152885 </i>
    <i name="e_wo_entrp">    -24.02726489 </i>
    <i name="e_0_energy">    -24.01677419 </i>
   </energy>
  </scstep>
  <scstep>
   <time name="dav">    3.25    3.25</time>
   <time name="total">    4.55    4.55</time>
   <dipole>
    <v name="dipole">      0.00000000       0.00000000       0.00395802 </v>
    <i name="Tr[quadrupol]">     -2.48539095 </i>
    <i name="Echarged">      0.00000000 </i>
    <i name="Edipol_quadrupol">      0.00000000 </i>
    <i name="Eion">      0.00000000 </i>
   </dipole>
   <energy>
    <i name="e_fr_energy">    -24.01273618 </i>
    <i name="e_wo_entrp">    -24.02848250 </i>
    <i name="e_0_energy">    -24.01798495 </i>
   </energy>
  </scstep>
  <scstep>
   <time name="dav">    5.20    5.20</time>
   <time name="total">    6.63    6.63</time>
   <dipole>
    <v name="dipole">      0.00000000       0.00000000       0.00437996 </v>
    <i name="Tr[quadrupol]">     -2.48658085 </i>
    <i name="Echarged">      0.00000000 </i>
    <i name="Edipol_quadrupol">      0.00000000 </i>
    <i name="Eion">      0.00000000 </i>
   </dipole>
   <energy>
    <i name="e_fr_energy">    -24.01270165 </i>
    <i name="e_wo_entrp">    -24.02844916 </i>
    <i name="e_0_energy">    -24.01795082 </i>
   </energy>
  </scstep>
  <scstep>
   <time name="dav">    5.28    5.29</time>
   <time name="total">    6.92    6.92</time>
   <dipole>
    <v name="dipole">      0.00000000       0.00000000       0.00415080 </v>
    <i name="Tr[quadrupol]">     -2.49424437 </i>
    <i name="Echarged">      0.00000000 </i>
    <i name="Edipol_quadrupol">      0.00000000 </i>
    <i name="Eion">      0.00000000 </i>
   </dipole>
   <energy>
    <i name="e_fr_energy">    -24.01295277 </i>
    <i name="e_wo_entrp">    -24.02866081 </i>
    <i name="e_0_energy">    -24.01818878 </i>
   </energy>
  </scstep>
  <scstep>
   <time name="dav">    5.52    5.52</time>
   <time name="total">    7.38    7.39</time>
   <dipole>
    <v name="dipole">      0.00000000       0.00000000       0.00316647 </v>
    <i name="Tr[quadrupol]">     -2.50470725 </i>
    <i name="Echarged">      0.00000000 </i>
    <i name="Edipol_quadrupol">      0.00000000 </i>
    <i name="Eion">      0.00000000 </i>
   </dipole>
   <energy>
    <i name="e_fr_energy">    -24.01319955 </i>
    <i name="e_wo_entrp">    -24.02898330 </i>
    <i name="e_0_energy">    -24.01846080 </i>
   </energy>
  </scstep>
  <scstep>
   <time name="dav">    5.47    5.48</time>
   <time name="total">    7.37    7.37</time>
   <dipole>
    <v name="dipole">      0.00000000       0.00000000       0.00255410 </v>
    <i name="Tr[quadrupol]">     -2.51128487 </i>
    <i name="Echarged">      0.00000000 </i>
    <i name="Edipol_quadrupol">      0.00000000 </i>
    <i name="Eion">      0.00000000 </i>
   </dipole>
   <energy>
    <i name="e_fr_energy">    -24.01319017 </i>
    <i name="e_wo_entrp">    -24.02890132 </i>
    <i name="e_0_energy">    -24.01842722 </i>
   </energy>
  </scstep>
  <scstep>
   <time name="dav">    5.85    5.85</time>
   <time name="total">    7.73    7.74</time>
   <dipole>
    <v name="dipole">      0.00000000       0.00000000       0.00130535 </v>
    <i name="Tr[quadrupol]">     -2.51612078 </i>
    <i name="Echarged">      0.00000000 </i>
    <i name="Edipol_quadrupol">      0.00000000 </i>
    <i name="Eion">      0.00000000 </i>
   </dipole>
   <energy>
    <i name="e_fr_energy">    -24.01328660 </i>
    <i name="e_wo_entrp">    -24.02905504 </i>
    <i name="e_0_energy">    -24.01854275 </i>
   </energy>
  </scstep>
  <scstep>
   <time name="dav">    5.83    5.83</time>
   <time name="total">    7.70    7.70</time>
   <dipole>
    <v name="dipole">      0.00000000       0.00000000       0.00040424 </v>
    <i name="Tr[quadrupol]">     -2.51905445 </i>
    <i name="Echarged">      0.00000000 </i>
    <i name="Edipol_quadrupol">      0.00000000 </i>
    <i name="Eion">      0.00000000 </i>
   </dipole>
   <energy>
    <i name="e_fr_energy">    -24.01336445 </i>
    <i name="e_wo_entrp">    -24.02909949 </i>
    <i name="e_0_energy">    -24.01860946 </i>
   </energy>
  </scstep>
  <scstep>
   <time name="dav">    6.03    6.03</time>
   <time name="total">    7.95    7.96</time>
   <dipole>
    <v name="dipole">      0.00000000       0.00000000       0.00010776 </v>
    <i name="Tr[quadrupol]">     -2.52009000 </i>
    <i name="Echarged">      0.00000000 </i>
    <i name="Edipol_quadrupol">      0.00000000 </i>
    <i name="Eion">      0.00000000 </i>
   </dipole>
   <energy>
    <i name="e_fr_energy">    -24.01339294 </i>
    <i name="e_wo_entrp">    -24.02913977 </i>
    <i name="e_0_energy">    -24.01864188 </i>
   </energy>
  </scstep>
  <scstep>
   <time name="dav">    5.84    5.84</time>
   <time name="total">    7.71    7.72</time>
   <dipole>
    <v name="dipole">      0.00000000       0.00000000      -0.00001869 </v>
    <i name="Tr[quadrupol]">     -2.52076939 </i>
    <i name="Echarged">      0.00000000 </i>
    <i name="Edipol_quadrupol">      0.00000000 </i>
    <i name="Eion">      0.00000000 </i>
   </dipole>
   <energy>
    <i name="e_fr_energy">    -24.01339811 </i>
    <i name="e_wo_entrp">    -24.02914231 </i>
    <i name="e_0_energy">    -24.01864617 </i>
   </energy>
  </scstep>
  <scstep>
   <time name="dav">    5.95    5.96</time>
   <time name="total">    7.84    7.86</time>
   <dipole>
    <v name="dipole">      0.00000000       0.00000000      -0.00005186 </v>
    <i name="Tr[quadrupol]">     -2.52119170 </i>
    <i name="Echarged">      0.00000000 </i>
    <i name="Edipol_quadrupol">      0.00000000 </i>
    <i name="Eion">      0.00000000 </i>
   </dipole>
   <energy>
    <i name="e_fr_energy">    -24.01340032 </i>
    <i name="e_wo_entrp">    -24.02914218 </i>
    <i name="e_0_energy">    -24.01864761 </i>
   </energy>
  </scstep>
  <scstep>
   <time name="dav">    5.85    5.86</time>
   <time name="total">    7.75    7.78</time>
   <dipole>
    <v name="dipole">      0.00000000       0.00000000      -0.00003446 </v>
    <i name="Tr[quadrupol]">     -2.52149572 </i>
    <i name="Echarged">      0.00000000 </i>
    <i name="Edipol_quadrupol">      0.00000000 </i>
    <i name="Eion">      0.00000000 </i>
   </dipole>
   <energy>
    <i name="e_fr_energy">    -24.01340286 </i>
    <i name="e_wo_entrp">    -24.02914641 </i>
    <i name="e_0_energy">    -24.01865071 </i>
   </energy>
  </scstep>
  <scstep>
   <time name="dav">    5.96    5.97</time>
   <time name="total">    7.38    7.40</time>
   <dipole>
    <v name="dipole">      0.00000000       0.00000000      -0.00001669 </v>
    <i name="Tr[quadrupol]">     -2.52161982 </i>
    <i name="Echarged">      0.00000000 </i>
    <i name="Edipol_quadrupol">      0.00000000 </i>
    <i name="Eion">      0.00000000 </i>
   </dipole>
   <energy>
    <i name="alphaZ">      0.13516281 </i>
    <i name="ewald">    152.84252707 </i>
    <i name="hartreedc">   -308.46686184 </i>
    <i name="XCdc">     24.61308328 </i>
    <i name="pawpsdc">    446.74047604 </i>
    <i name="pawaedc">   -447.52600995 </i>
    <i name="eentropy">      0.01574077 </i>
    <i name="bandstr">    -89.46166313 </i>
    <i name="atom">    197.09414118 </i>
    <i name="e_fr_energy">    -24.01340376 </i>
    <i name="e_wo_entrp">    -24.02914453 </i>
    <i name="e_0_energy">    -24.01865068 </i>
   </energy>
  </scstep>
  <structure>
   <crystal>
    <varray name="basis" >
     <v>      10.16000000       0.00000000       0.00000000 </v>
     <v>       0.00000000      11.76000000       0.00000000 </v>
     <v>       0.00000000       0.00000000      15.00000000 </v>
    </varray>
    <i name="volume">   1792.22400000 </i>
    <varray name="rec_basis" >
     <v>       0.09842520       0.00000000       0.00000000 </v>
     <v>       0.00000000       0.08503401       0.00000000 </v>
     <v>       0.00000000       0.00000000       0.06666667 </v>
    </varray>
   </crystal>
   <varray name="positions" >
    <v>       0.00000000       0.00000000       0.00000000 </v>
    <v>       0.10919000       0.00000000       0.00000000 </v>
    <v>       0.96360000       0.05232000       0.05639000 </v>
    <v>       0.96360000       0.91155000       0.00733000 </v>
    <v>       0.96360000       0.03613000       0.93628000 </v>
   </varray>
  </structure>
  <varray name="forces" >
   <v>      -0.00106319      -0.00300838       0.00076964 </v>
   <v>      -0.41836390       0.00078392      -0.00108483 </v>
   <v>       0.13915277      -0.23253316      -0.32038468 </v>
   <v>       0.13980061       0.39473964      -0.04125534 </v>
   <v>       0.14047371      -0.15998202       0.36195521 </v>
  </varray>
  <varray name="stress" >
   <v>      -0.58652607      -0.00115240      -0.00120990 </v>
   <v>      -0.00115240      -0.60097698       0.00006245 </v>
   <v>      -0.00120990       0.00006245      -0.57711365 </v>
  </varray>
  <energy>
   <i name="e_fr_energy">    -24.01340376 </i>
   <i name="e_wo_entrp">    -24.01865068 </i>
   <i name="e_0_energy">      0.01574077 </i>
  </energy>
  <time name="totalsc">  210.57  211.06</time>
 </calculation>
 <calculation>
  <scstep>
   <time name="dav">    5.85    5.85</time>
   <time name="total">    7.59    7.59</time>
   <dipole>
    <v name="dipole">      0.00000000       0.00000000      -0.00000452 </v>
    <i name="Tr[quadrupol]">     -2.40306525 </i>
    <i name="Echarged">      0.00000000 </i>
    <i name="Edipol_quadrupol">      0.00000000 </i>
    <i name="Eion">      0.00000000 </i>
   </dipole>
   <energy>
    <i name="alphaZ">      0.13516704 </i>
    <i name="ewald">    157.56525056 </i>
    <i name="hartreedc">   -311.20983850 </i>
    <i name="XCdc">     24.75062420 </i>
    <i name="pawpsdc">    446.73948742 </i>
    <i name="pawaedc">   -447.52502126 </i>
    <i name="eentropy">      0.01563289 </i>
    <i name="bandstr">    -91.59558671 </i>
    <i name="atom">    197.09414118 </i>
    <i name="e_fr_energy">    -24.03014319 </i>
    <i name="e_wo_entrp">    -24.04577608 </i>
    <i name="e_0_energy">    -24.03535415 </i>
   </energy>
  </scstep>
  <scstep>
   <time name="dav">    5.93    5.93</time>
   <time name="total">    7.62    7.63</time>
   <dipole>
    <v name="dipole">      0.00000000       0.00000000      -0.00004222 </v>
    <i name="Tr[quadrupol]">     -2.40651004 </i>
    <i name="Echarged">      0.00000000 </i>
    <i name="Edipol_quadrupol">      0.00000000 </i>
    <i name="Eion">      0.00000000 </i>
   </dipole>
   <energy>
    <i name="e_fr_energy">    -24.02232786 </i>
    <i name="e_wo_entrp">    -24.03816436 </i>
    <i name="e_0_energy">    -24.02760670 </i>
   </energy>
  </scstep>
  <scstep>
   <time name="dav">    5.92    5.92</time>
   <time name="total">    7.60    7.60</time>
   <dipole>
    <v name="dipole">      0.00000000       0.00000000       0.00029460 </v>
    <i name="Tr[quadrupol]">     -2.40973244 </i>
    <i name="Echarged">      0.00000000 </i>
    <i name="Edipol_quadrupol">      0.00000000 </i>
    <i name="Eion">      0.00000000 </i>
   </dipole>
   <energy>
    <i name="e_fr_energy">    -24.02160766 </i>
    <i name="e_wo_entrp">    -24.03683546 </i>
    <i name="e_0_energy">    -24.02668359 </i>
   </energy>
  </scstep>
  <scstep>
   <time name="dav">    5.83    5.83</time>
   <time name="total">    7.50    7.51</time>
   <dipole>
    <v name="dipole">      0.00000000       0.00000000       0.00029495 </v>
    <i name="Tr[quadrupol]">     -2.40954306 </i>
    <i name="Echarged">      0.00000000 </i>
    <i name="Edipol_quadrupol">      0.00000000 </i>
    <i name="Eion">      0.00000000 </i>
   </dipole>
   <energy>
    <i name="e_fr_energy">    -24.02212891 </i>
    <i name="e_wo_entrp">    -24.03790508 </i>
    <i name="e_0_energy">    -24.02738763 </i>
   </energy>
  </scstep>
  <scstep>
   <time name="dav">    5.72    5.72</time>
   <time name="total">    7.44    7.44</time>
   <dipole>
    <v name="dipole">      0.00000000       0.00000000       0.00017500 </v>
    <i name="Tr[quadrupol]">     -2.40944317 </i>
    <i name="Echarged">      0.00000000 </i>
    <i name="Edipol_quadrupol">      0.00000000 </i>
    <i name="Eion">      0.00000000 </i>
   </dipole>
   <energy>
    <i name="e_fr_energy">    -24.02156597 </i>
    <i name="e_wo_entrp">    -24.03681708 </i>
    <i name="e_0_energy">    -24.02664968 </i>
   </energy>
  </scstep>
  <scstep>
   <time name="dav">    5.52    5.53</time>
   <time name="total">    7.27    7.27</time>
   <dipole>
    <v name="dipole">      0.00000000       0.00000000       0.00002885 </v>
    <i name="Tr[quadrupol]">     -2.40937283 </i>
    <i name="Echarged">      0.00000000 </i>
    <i name="Edipol_quadrupol">      0.00000000 </i>
    <i name="Eion">      0.00000000 </i>
   </dipole>
   <energy>
    <i name="e_fr_energy">    -24.02165852 </i>
    <i name="e_wo_entrp">    -24.03724683 </i>
    <i name="e_0_energy">    -24.02685462 </i>
   </energy>
  </scstep>
  <scstep>
   <time name="dav">    5.36    5.38</time>
   <time name="total">    7.07    7.09</time>
   <dipole>
    <v name="dipole">      0.00000000       0.00000000       0.00004673 </v>
    <i name="Tr[quadrupol]">     -2.40941638 </i>
    <i name="Echarged">      0.00000000 </i>
    <i name="Edipol_quadrupol">      0.00000000 </i>
    <i name="Eion">      0.00000000 </i>
   </dipole>
   <energy>
    <i name="e_fr_energy">    -24.02159739 </i>
    <i name="e_wo_entrp">    -24.03690229 </i>
    <i name="e_0_energy">    -24.02669902 </i>
   </energy>
  </scstep>
  <scstep>
   <time name="dav">    4.49    4.54</time>
   <time name="total">    6.08    6.14</time>
   <dipole>
    <v name="dipole">      0.00000000       0.00000000      -0.00016427 </v>
    <i name="Tr[quadrupol]">     -2.41039131 </i>
    <i name="Echarged">      0.00000000 </i>
    <i name="Edipol_quadrupol">      0.00000000 </i>
    <i name="Eion">      0.00000000 </i>
   </dipole>
   <energy>
    <i name="e_fr_energy">    -24.02161514 </i>
    <i name="e_wo_entrp">    -24.03747942 </i>
    <i name="e_0_energy">    -24.02690323 </i>
   </energy>
  </scstep>
  <scstep>
   <time name="dav">    4.54    4.69</time>
   <time name="total">    6.26    6.41</time>
   <dipole>
    <v name="dipole">      0.00000000       0.00000000      -0.00012130 </v>
    <i name="Tr[quadrupol]">     -2.41046209 </i>
    <i name="Echarged">      0.00000000 </i>
    <i name="Edipol_quadrupol">      0.00000000 </i>
    <i name="Eion">      0.00000000 </i>
   </dipole>
   <energy>
    <i name="e_fr_energy">    -24.02164992 </i>
    <i name="e_wo_entrp">    -24.03746068 </i>
    <i name="e_0_energy">    -24.02692017 </i>
   </energy>
  </scstep>
  <scstep>
   <time name="dav">    4.91    4.92</time>
   <time name="total">    6.43    6.44</time>
   <dipole>
    <v name="dipole">      0.00000000       0.00000000       0.00002754 </v>
    <i name="Tr[quadrupol]">     -2.41062183 </i>
    <i name="Echarged">      0.00000000 </i>
    <i name="Edipol_quadrupol">      0.00000000 </i>
    <i name="Eion">      0.00000000 </i>
   </dipole>
   <energy>
    <i name="e_fr_energy">    -24.02161204 </i>
    <i name="e_wo_entrp">    -24.03747714 </i>
    <i name="e_0_energy">    -24.02690041 </i>
   </energy>
  </scstep>
  <scstep>
   <time name="dav">    4.47    4.47</time>
   <time name="total">    6.06    6.07</time>
   <dipole>
    <v name="dipole">      0.00000000       0.00000000       0.00005030 </v>
    <i name="Tr[quadrupol]">     -2.41081756 </i>
    <i name="Echarged">      0.00000000 </i>
    <i name="Edipol_quadrupol">      0.00000000 </i>
    <i name="Eion">      0.00000000 </i>
   </dipole>
   <energy>
    <i name="e_fr_energy">    -24.02163314 </i>
    <i name="e_wo_entrp">    -24.03737491 </i>
    <i name="e_0_energy">    -24.02688040 </i>
   </energy>
  </scstep>
  <scstep>
   <time name="dav">    4.22    4.22</time>
   <time name="total">    5.70    5.70</time>
   <dipole>
    <v name="dipole">      0.00000000       0.00000000       0.00005988 </v>
    <i name="Tr[quadrupol]">     -2.41118205 </i>
    <i name="Echarged">      0.00000000 </i>
    <i name="Edipol_quadrupol">      0.00000000 </i>
    <i name="Eion">      0.00000000 </i>
   </dipole>
   <energy>
    <i name="e_fr_energy">    -24.02163899 </i>
    <i name="e_wo_entrp">    -24.03737325 </i>
    <i name="e_0_energy">    -24.02688374 </i>
   </energy>
  </scstep>
  <scstep>
   <time name="dav">    4.20    4.21</time>
   <time name="total">    5.74    5.74</time>
   <dipole>
    <v name="dipole">      0.00000000       0.00000000       0.00004658 </v>
    <i name="Tr[quadrupol]">     -2.41135090 </i>
    <i name="Echarged">      0.00000000 </i>
    <i name="Edipol_quadrupol">      0.00000000 </i>
    <i name="Eion">      0.00000000 </i>
   </dipole>
   <energy>
    <i name="e_fr_energy">    -24.02164560 </i>
    <i name="e_wo_entrp">    -24.03737388 </i>
    <i name="e_0_energy">    -24.02688836 </i>
   </energy>
  </scstep>
  <scstep>
   <time name="dav">    4.45    4.46</time>
   <time name="total">    5.66    5.67</time>
   <dipole>
    <v name="dipole">      0.00000000       0.00000000       0.00004710 </v>
    <i name="Tr[quadrupol]">     -2.41145575 </i>
    <i name="Echarged">      0.00000000 </i>
    <i name="Edipol_quadrupol">      0.00000000 </i>
    <i name="Eion">      0.00000000 </i>
   </dipole>
   <energy>
    <i name="alphaZ">      0.13517804 </i>
    <i name="ewald">    157.56525056 </i>
    <i name="hartreedc">   -312.61915634 </i>
    <i name="XCdc">     24.83174551 </i>
    <i name="pawpsdc">    475.22997382 </i>
    <i name="pawaedc">   -476.03239264 </i>
    <i name="eentropy">      0.01571983 </i>
    <i name="bandstr">    -90.24210537 </i>
    <i name="atom">    197.09414118 </i>
    <i name="e_fr_energy">    -24.02164543 </i>
    <i name="e_wo_entrp">    -24.03736526 </i>
    <i name="e_0_energy">    -24.02688537 </i>
   </energy>
  </scstep>
  <structure>
   <crystal>
    <varray name="basis" >
     <v>      10.16000000       0.00000000       0.00000000 </v>
     <v>       0.00000000      11.76000000       0.00000000 </v>
     <v>       0.00000000       0.00000000      15.00000000 </v>
    </varray>
    <i name="volume">   1792.22400000 </i>
    <varray name="rec_basis" >
     <v>       0.09842520       0.00000000       0.00000000 </v>
     <v>       0.00000000       0.08503401       0.00000000 </v>
     <v>       0.00000000       0.00000000       0.06666667 </v>
    </varray>
   </crystal>
   <varray name="positions" >
    <v>      -0.00000505      -0.00001234       0.00000248 </v>
    <v>       0.10720349       0.00000322      -0.00000349 </v>
    <v>       0.96426074       0.05136609       0.05535959 </v>
    <v>       0.96426381       0.91316933       0.00719732 </v>
    <v>       0.96426701       0.03547371       0.93744411 </v>
   </varray>
  </structure>
  <varray name="forces" >
   <v>       0.02780712      -0.01776183       0.00716795 </v>
   <v>       0.21484348       0.00484106      -0.00544464 </v>
   <v>      -0.08344632       0.12972735       0.17358020 </v>
   <v>      -0.08147966      -0.21132872       0.02490292 </v>
   <v>      -0.07772462       0.09452214      -0.20020643 </v>
  </varray>
  <varray name="stress" >
   <v>       0.24725397      -0.00350324      -0.00121527 </v>
   <v>      -0.00350324       0.25845987      -0.00207957 </v>
   <v>      -0.00121527      -0.00207957       0.28967733 </v>
  </varray>
  <energy>
   <i name="e_fr_energy">    -24.02164543 </i>
   <i name="e_wo_entrp">    -24.02688537 </i>
   <i name="e_0_energy">      0.01571983 </i>
  </energy>
  <time name="totalsc">  102.31  102.62</time>
 </calculation>
 <calculation>
  <scstep>
   <time name="dav">    4.26    4.27</time>
   <time name="total">    5.71    5.72</time>
   <dipole>
    <v name="dipole">      0.00000000       0.00000000       0.00005627 </v>
    <i name="Tr[quadrupol]">     -2.45162244 </i>
    <i name="Echarged">      0.00000000 </i>
    <i name="Edipol_quadrupol">      0.00000000 </i>
    <i name="Eion">      0.00000000 </i>
   </dipole>
   <energy>
    <i name="alphaZ">      0.13518005 </i>
    <i name="ewald">    155.94110760 </i>
    <i name="hartreedc">   -311.67784719 </i>
    <i name="XCdc">     24.78452682 </i>
    <i name="pawpsdc">    475.33515863 </i>
    <i name="pawaedc">   -476.13754923 </i>
    <i name="eentropy">      0.01576724 </i>
    <i name="bandstr">    -89.51624800 </i>
    <i name="atom">    197.09414118 </i>
    <i name="e_fr_energy">    -24.02576290 </i>
    <i name="e_wo_entrp">    -24.04153014 </i>
    <i name="e_0_energy">    -24.03101864 </i>
   </energy>
  </scstep>
  <scstep>
   <time name="dav">    4.26    4.27</time>
   <time name="total">    5.71    5.72</time>
   <dipole>
    <v name="dipole">      0.00000000       0.00000000       0.00006968 </v>
    <i name="Tr[quadrupol]">     -2.45076292 </i>
    <i name="Echarged">      0.00000000 </i>
    <i name="Edipol_quadrupol">      0.00000000 </i>
    <i name="Eion">      0.00000000 </i>
   </dipole>
   <energy>
    <i name="e_fr_energy">    -24.02481488 </i>
    <i name="e_wo_entrp">    -24.04043076 </i>
    <i name="e_0_energy">    -24.03002017 </i>
   </energy>
  </scstep>
  <scstep>
   <time name="dav">    4.35    4.36</time>
   <time name="total">    5.78    5.80</time>
   <dipole>
    <v name="dipole">      0.00000000       0.00000000       0.00002338 </v>
    <i name="Tr[quadrupol]">     -2.45020403 </i>
    <i name="Echarged">      0.00000000 </i>
    <i name="Edipol_quadrupol">      0.00000000 </i>
    <i name="Eion">      0.00000000 </i>
   </dipole>
   <energy>
    <i name="e_fr_energy">    -24.02470337 </i>
    <i name="e_wo_entrp">    -24.04081607 </i>
    <i name="e_0_energy">    -24.03007427 </i>
   </energy>
  </scstep>
  <scstep>
   <time name="dav">    4.46    4.47</time>
   <time name="total">    5.92    5.93</time>
   <dipole>
    <v name="dipole">      0.00000000       0.00000000       0.00004283 </v>
    <i name="Tr[quadrupol]">     -2.45031238 </i>
    <i name="Echarged">      0.00000000 </i>
    <i name="Edipol_quadrupol">      0.00000000 </i>
    <i name="Eion">      0.00000000 </i>
   </dipole>
   <energy>
    <i name="e_fr_energy">    -24.02479585 </i>
    <i name="e_wo_entrp">    -24.04057069 </i>
    <i name="e_0_energy">    -24.03005413 </i>
   </energy>
  </scstep>
  <scstep>
   <time name="dav">    4.59    4.59</time>
   <time name="total">    6.12    6.12</time>
   <dipole>
    <v name="dipole">      0.00000000       0.00000000       0.00006127 </v>
    <i name="Tr[quadrupol]">     -2.45034217 </i>
    <i name="Echarged">      0.00000000 </i>
    <i name="Edipol_quadrupol">      0.00000000 </i>
    <i name="Eion">      0.00000000 </i>
   </dipole>
   <energy>
    <i name="e_fr_energy">    -24.02475909 </i>
    <i name="e_wo_entrp">    -24.04070302 </i>
    <i name="e_0_energy">    -24.03007374 </i>
   </energy>
  </scstep>
  <scstep>
   <time name="dav">    4.45    4.45</time>
   <time name="total">    5.90    5.90</time>
   <dipole>
    <v name="dipole">      0.00000000       0.00000000       0.00010099 </v>
    <i name="Tr[quadrupol]">     -2.45054048 </i>
    <i name="Echarged">      0.00000000 </i>
    <i name="Edipol_quadrupol">      0.00000000 </i>
    <i name="Eion">      0.00000000 </i>
   </dipole>
   <energy>
    <i name="e_fr_energy">    -24.02473556 </i>
    <i name="e_wo_entrp">    -24.04047476 </i>
    <i name="e_0_energy">    -24.02998196 </i>
   </energy>
  </scstep>
  <scstep>
   <time name="dav">    4.90    4.91</time>
   <time name="total">    6.36    6.37</time>
   <dipole>
    <v name="dipole">      0.00000000       0.00000000       0.00006624 </v>
    <i name="Tr[quadrupol]">     -2.45058888 </i>
    <i name="Echarged">      0.00000000 </i>
    <i name="Edipol_quadrupol">      0.00000000 </i>
    <i name="Eion">      0.00000000 </i>
   </dipole>
   <energy>
    <i name="e_fr_energy">    -24.02476026 </i>
    <i name="e_wo_entrp">    -24.04050656 </i>
    <i name="e_0_energy">    -24.03000902 </i>
   </energy>
  </scstep>
  <scstep>
   <time name="dav">    4.47    4.48</time>
   <time name="total">    5.96    5.97</time>
   <dipole>
    <v name="dipole">      0.00000000       0.00000000       0.00002403 </v>
    <i name="Tr[quadrupol]">     -2.45082648 </i>
    <i name="Echarged">      0.00000000 </i>
    <i name="Edipol_quadrupol">      0.00000000 </i>
    <i name="Eion">      0.00000000 </i>
   </dipole>
   <energy>
    <i name="e_fr_energy">    -24.02476691 </i>
    <i name="e_wo_entrp">    -24.04050646 </i>
    <i name="e_0_energy">    -24.03001342 </i>
   </energy>
  </scstep>
  <scstep>
   <time name="dav">    4.86    4.87</time>
   <time name="total">    6.35    6.36</time>
   <dipole>
    <v name="dipole">      0.00000000       0.00000000       0.00003759 </v>
    <i name="Tr[quadrupol]">     -2.45086770 </i>
    <i name="Echarged">      0.00000000 </i>
    <i name="Edipol_quadrupol">      0.00000000 </i>
    <i name="Eion">      0.00000000 </i>
   </dipole>
   <energy>
    <i name="e_fr_energy">    -24.02477021 </i>
    <i name="e_wo_entrp">    -24.04049989 </i>
    <i name="e_0_energy">    -24.03001344 </i>
   </energy>
  </scstep>
  <scstep>
   <time name="dav">    4.74    4.75</time>
   <time name="total">    6.22    6.24</time>
   <dipole>
    <v name="dipole">      0.00000000       0.00000000       0.00007483 </v>
    <i name="Tr[quadrupol]">     -2.45091504 </i>
    <i name="Echarged">      0.00000000 </i>
    <i name="Edipol_quadrupol">      0.00000000 </i>
    <i name="Eion">      0.00000000 </i>
   </dipole>
   <energy>
    <i name="e_fr_energy">    -24.02476847 </i>
    <i name="e_wo_entrp">    -24.04050662 </i>
    <i name="e_0_energy">    -24.03001452 </i>
   </energy>
  </scstep>
  <scstep>
   <time name="dav">    4.63    4.64</time>
   <time name="total">    6.12    6.13</time>
   <dipole>
    <v name="dipole">      0.00000000       0.00000000       0.00008838 </v>
    <i name="Tr[quadrupol]">     -2.45099323 </i>
    <i name="Echarged">      0.00000000 </i>
    <i name="Edipol_quadrupol">      0.00000000 </i>
    <i name="Eion">      0.00000000 </i>
   </dipole>
   <energy>
    <i name="e_fr_energy">    -24.02477080 </i>
    <i name="e_wo_entrp">    -24.04048340 </i>
    <i name="e_0_energy">    -24.03000834 </i>
   </energy>
  </scstep>
  <scstep>
   <time name="dav">    4.59    4.60</time>
   <time name="total">    6.08    6.10</time>
   <dipole>
    <v name="dipole">      0.00000000       0.00000000       0.00006648 </v>
    <i name="Tr[quadrupol]">     -2.45107564 </i>
    <i name="Echarged">      0.00000000 </i>
    <i name="Edipol_quadrupol">      0.00000000 </i>
    <i name="Eion">      0.00000000 </i>
   </dipole>
   <energy>
    <i name="e_fr_energy">    -24.02477309 </i>
    <i name="e_wo_entrp">    -24.04049409 </i>
    <i name="e_0_energy">    -24.03001342 </i>
   </energy>
  </scstep>
  <scstep>
   <time name="dav">    4.83    4.84</time>
   <time name="total">    6.07    6.09</time>
   <dipole>
    <v name="dipole">      0.00000000       0.00000000       0.00005350 </v>
    <i name="Tr[quadrupol]">     -2.45106380 </i>
    <i name="Echarged">      0.00000000 </i>
    <i name="Edipol_quadrupol">      0.00000000 </i>
    <i name="Eion">      0.00000000 </i>
   </dipole>
   <energy>
    <i name="alphaZ">      0.13517161 </i>
    <i name="ewald">    155.94110760 </i>
    <i name="hartreedc">   -311.20623441 </i>
    <i name="XCdc">     24.75697580 </i>
    <i name="pawpsdc">    465.12937830 </i>
    <i name="pawaedc">   -465.92598781 </i>
    <i name="eentropy">      0.01571489 </i>
    <i name="bandstr">    -89.96504075 </i>
    <i name="atom">    197.09414118 </i>
    <i name="e_fr_energy">    -24.02477359 </i>
    <i name="e_wo_entrp">    -24.04048847 </i>
    <i name="e_0_energy">    -24.03001188 </i>
   </energy>
  </scstep>
  <structure>
   <crystal>
    <varray name="basis" >
     <v>      10.16000000       0.00000000       0.00000000 </v>
     <v>       0.00000000      11.76000000       0.00000000 </v>
     <v>       0.00000000       0.00000000      15.00000000 </v>
    </varray>
    <i name="volume">   1792.22400000 </i>
    <varray name="rec_basis" >
     <v>       0.09842520       0.00000000       0.00000000 </v>
     <v>       0.00000000       0.08503401       0.00000000 </v>
     <v>       0.00000000       0.00000000       0.06666667 </v>
    </varray>
   </crystal>
   <varray name="positions" >
    <v>      -0.00000333      -0.00000815       0.00000163 </v>
    <v>       0.10787835       0.00000212      -0.00000230 </v>
    <v>       0.96403627       0.05169015       0.05570964 </v>
    <v>       0.96403830       0.91261920       0.00724239 </v>
    <v>       0.96404041       0.03569667       0.93704864 </v>
   </varray>
  </structure>
  <varray name="forces" >
   <v>       0.00038585      -0.00883870       0.00080888 </v>
   <v>      -0.00083829       0.00264913      -0.00398409 </v>
   <v>      -0.00249799       0.00069123       0.00021596 </v>
   <v>      -0.00048723       0.00148825       0.00310877 </v>
   <v>       0.00343767       0.00401009      -0.00014953 </v>
  </varray>
  <varray name="stress" >
   <v>      -0.03520163      -0.00144438      -0.00398441 </v>
   <v>      -0.00144438      -0.04687920      -0.00118069 </v>
   <v>      -0.00398441      -0.00118069      -0.02170318 </v>
  </varray>
  <energy>
   <i name="e_fr_energy">    -24.02477359 </i>
   <i name="e_wo_entrp">    -24.03001188 </i>
   <i name="e_0_energy">      0.01571489 </i>
  </energy>
  <time name="totalsc">   86.39   86.56</time>
  <eigenvalues>
   <array>
    <dimension dim="1">band</dimension>
    <dimension dim="2">kpoint</dimension>
    <dimension dim="3">spin</dimension>
    <field>eigene</field>
    <field>occ</field>
    <set>
     <set comment="spin 1">
      <set comment="kpoint 1">
       <r>  -16.9882    1.0000 </r>
       <r>   -9.3925    1.0193 </r>
       <r>   -9.3923    1.0194 </r>
       <r>   -9.3917    1.0196 </r>
       <r>   -0.4543    0.0000 </r>
       <r>    0.1864    0.0000 </r>
       <r>    0.7118    0.0000 </r>
       <r>    0.7940    0.0000 </r>
       <r>    0.9384    0.0000 </r>
       <r>    1.0741    0.0000 </r>
       <r>    1.1963    0.0000 </r>
      </set>
      <set comment="kpoint 2">
       <r>  -16.9882    1.0000 </r>
       <r>   -9.3925    1.0193 </r>
       <r>   -9.3923    1.0194 </r>
       <r>   -9.3917    1.0196 </r>
       <r>   -0.3425    0.0000 </r>
       <r>    0.3119    0.0000 </r>
       <r>    0.4290    0.0000 </r>
       <r>    0.8272    0.0000 </r>
       <r>    0.9081    0.0000 </r>
       <r>    0.9154    0.0000 </r>
       <r>    1.0911    0.0000 </r>
      </set>
      <set comment="kpoint 3">
       <r>  -16.9882    1.0000 </r>
       <r>   -9.3925    1.0193 </r>
       <r>   -9.3923    1.0194 </r>
       <r>   -9.3917    1.0196 </r>
       <r>   -0.3425    0.0000 </r>
       <r>    0.3114    0.0000 </r>
       <r>    0.4295    0.0000 </r>
       <r>    0.8258    0.0000 </r>
       <r>    0.9081    0.0000 </r>
       <r>    0.9160    0.0000 </r>
       <r>    1.0948    0.0000 </r>
      </set>
      <set comment="kpoint 4">
       <r>  -16.9882    1.0000 </r>
       <r>   -9.3925    1.0193 </r>
       <r>   -9.3923    1.0194 </r>
       <r>   -9.3917    1.0196 </r>
       <r>   -0.3933    0.0000 </r>
       <r>    0.2463    0.0000 </r>
       <r>    0.3574    0.0000 </r>
       <r>    0.6948    0.0000 </r>
       <r>    0.9036    0.0000 </r>
       <r>    1.1360    0.0000 </r>
       <r>    1.2733    0.0000 </r>
      </set>
      <set comment="kpoint 5">
       <r>  -16.9882    1.0000 </r>
       <r>   -9.3925    1.0193 </r>
       <r>   -9.3923    1.0194 </r>
       <r>   -9.3917    1.0196 </r>
       <r>   -0.2865    0.0000 </r>
       <r>    0.3765    0.0000 </r>
       <r>    0.5020    0.0000 </r>
       <r>    0.5243    0.0000 </r>
       <r>    0.8217    0.0000 </r>
       <r>    0.9363    0.0000 </r>
       <r>    0.9930    0.0000 </r>
      </set>
      <set comment="kpoint 6">
       <r>  -16.9882    1.0000 </r>
       <r>   -9.3925    1.0193 </r>
       <r>   -9.3923    1.0194 </r>
       <r>   -9.3917    1.0196 </r>
       <r>   -0.2866    0.0000 </r>
       <r>    0.3756    0.0000 </r>
       <r>    0.4999    0.0000 </r>
       <r>    0.5250    0.0000 </r>
       <r>    0.8198    0.0000 </r>
       <r>    0.9498    0.0000 </r>
       <r>    0.9901    0.0000 </r>
      </set>
      <set comment="kpoint 7">
       <r>  -16.9882    1.0000 </r>
       <r>   -9.3925    1.0193 </r>
       <r>   -9.3923    1.0194 </r>
       <r>   -9.3917    1.0196 </r>
       <r>   -0.3933    0.0000 </r>
       <r>    0.2465    0.0000 </r>
       <r>    0.3572    0.0000 </r>
       <r>    0.6948    0.0000 </r>
       <r>    0.9036    0.0000 </r>
       <r>    1.1359    0.0000 </r>
       <r>    1.2722    0.0000 </r>
      </set>
      <set comment="kpoint 8">
       <r>  -16.9882    1.0000 </r>
       <r>   -9.3925    1.0193 </r>
       <r>   -9.3923    1.0194 </r>
       <r>   -9.3917    1.0196 </r>
       <r>   -0.2866    0.0000 </r>
       <r>    0.3760    0.0000 </r>
       <r>    0.4999    0.0000 </r>
       <r>    0.5248    0.0000 </r>
       <r>    0.8205    0.0000 </r>
       <r>    0.9464    0.0000 </r>
       <r>    0.9925    0.0000 </r>
      </set>
      <set comment="kpoint 9">
       <r>  -16.9882    1.0000 </r>
       <r>   -9.3925    1.0193 </r>
       <r>   -9.3923    1.0194 </r>
       <r>   -9.3917    1.0196 </r>
       <r>   -0.2865    0.0000 </r>
       <r>    0.3761    0.0000 </r>
       <r>    0.5014    0.0000 </r>
       <r>    0.5251    0.0000 </r>
       <r>    0.8208    0.0000 </r>
       <r>    0.9386    0.0000 </r>
       <r>    0.9929    0.0000 </r>
      </set>
     </set>
     <set comment="spin 2">
      <set comment="kpoint 1">
       <r>  -16.8929    1.0000 </r>
       <r>   -9.3011    0.9817 </r>
       <r>   -9.3007    0.9804 </r>
       <r>   -9.3003    0.9795 </r>
       <r>   -0.4525    0.0000 </r>
       <r>    0.1890    0.0000 </r>
       <r>    0.7097    0.0000 </r>
       <r>    0.7874    0.0000 </r>
       <r>    0.9199    0.0000 </r>
       <r>    1.0716    0.0000 </r>
       <r>    1.1871    0.0000 </r>
      </set>
      <set comment="kpoint 2">
       <r>  -16.8929    1.0000 </r>
       <r>   -9.3011    0.9818 </r>
       <r>   -9.3007    0.9804 </r>
       <r>   -9.3003    0.9795 </r>
       <r>   -0.3372    0.0000 </r>
       <r>    0.3117    0.0000 </r>
       <r>    0.4180    0.0000 </r>
       <r>    0.8279    0.0000 </r>
       <r>    0.9052    0.0000 </r>
       <r>    0.9155    0.0000 </r>
       <r>    1.0754    0.0000 </r>
      </set>
      <set comment="kpoint 3">
       <r>  -16.8929    1.0000 </r>
       <r>   -9.3011    0.9818 </r>
       <r>   -9.3007    0.9804 </r>
       <r>   -9.3003    0.9795 </r>
       <r>   -0.3372    0.0000 </r>
       <r>    0.3104    0.0000 </r>
       <r>    0.4197    0.0000 </r>
       <r>    0.8279    0.0000 </r>
       <r>    0.9048    0.0000 </r>
       <r>    0.9143    0.0000 </r>
       <r>    1.0793    0.0000 </r>
      </set>
      <set comment="kpoint 4">
       <r>  -16.8929    1.0000 </r>
       <r>   -9.3011    0.9818 </r>
       <r>   -9.3007    0.9804 </r>
       <r>   -9.3003    0.9795 </r>
       <r>   -0.3884    0.0000 </r>
       <r>    0.2418    0.0000 </r>
       <r>    0.3470    0.0000 </r>
       <r>    0.6950    0.0000 </r>
       <r>    0.9044    0.0000 </r>
       <r>    1.1365    0.0000 </r>
       <r>    1.2659    0.0000 </r>
      </set>
      <set comment="kpoint 5">
       <r>  -16.8929    1.0000 </r>
       <r>   -9.3011    0.9818 </r>
       <r>   -9.3007    0.9804 </r>
       <r>   -9.3003    0.9795 </r>
       <r>   -0.2783    0.0000 </r>
       <r>    0.3706    0.0000 </r>
       <r>    0.4929    0.0000 </r>
       <r>    0.5168    0.0000 </r>
       <r>    0.8244    0.0000 </r>
       <r>    0.9304    0.0000 </r>
       <r>    0.9784    0.0000 </r>
      </set>
      <set comment="kpoint 6">
       <r>  -16.8929    1.0000 </r>
       <r>   -9.3011    0.9818 </r>
       <r>   -9.3007    0.9804 </r>
       <r>   -9.3004    0.9795 </r>
       <r>   -0.2783    0.0000 </r>
       <r>    0.3692    0.0000 </r>
       <r>    0.4907    0.0000 </r>
       <r>    0.5182    0.0000 </r>
       <r>    0.8215    0.0000 </r>
       <r>    0.9438    0.0000 </r>
       <r>    0.9790    0.0000 </r>
      </set>
      <set comment="kpoint 7">
       <r>  -16.8929    1.0000 </r>
       <r>   -9.3011    0.9818 </r>
       <r>   -9.3007    0.9804 </r>
       <r>   -9.3003    0.9795 </r>
       <r>   -0.3884    0.0000 </r>
       <r>    0.2408    0.0000 </r>
       <r>    0.3483    0.0000 </r>
       <r>    0.6950    0.0000 </r>
       <r>    0.9034    0.0000 </r>
       <r>    1.1363    0.0000 </r>
       <r>    1.2651    0.0000 </r>
      </set>
      <set comment="kpoint 8">
       <r>  -16.8929    1.0000 </r>
       <r>   -9.3011    0.9818 </r>
       <r>   -9.3007    0.9804 </r>
       <r>   -9.3003    0.9795 </r>
       <r>   -0.2783    0.0000 </r>
       <r>    0.3692    0.0000 </r>
       <r>    0.4926    0.0000 </r>
       <r>    0.5167    0.0000 </r>
       <r>    0.8228    0.0000 </r>
       <r>    0.9375    0.0000 </r>
       <r>    0.9823    0.0000 </r>
      </set>
      <set comment="kpoint 9">
       <r>  -16.8929    1.0000 </r>
       <r>   -9.3011    0.9818 </r>
       <r>   -9.3007    0.9804 </r>
       <r>   -9.3003    0.9795 </r>
       <r>   -0.2783    0.0000 </r>
       <r>    0.3693    0.0000 </r>
       <r>    0.4932    0.0000 </r>
       <r>    0.5179    0.0000 </r>
       <r>    0.8226    0.0000 </r>
       <r>    0.9334    0.0000 </r>
       <r>    0.9797    0.0000 </r>
      </set>
     </set>
    </set>
   </array>
  </eigenvalues>
  <separator name="orbital magnetization" >
   <v name="MAGDIPOLOUT">      0.00000000      0.00000000      0.00000000</v>
  </separator>
  <dos>
   <i name="efermi">     -9.22420539 </i>
   <total>
    <array>
     <dimension dim="1">gridpoints</dimension>
     <dimension dim="2">spin</dimension>
     <field>energy</field>
     <field>total</field>
     <field>integrated</field>
     <set>
      <set comment="spin 1">
       <r>   -17.9882     0.0000     0.0000 </r>
       <r>   -17.9206     0.0000     0.0000 </r>
       <r>   -17.8531    -0.0000    -0.0000 </r>
       <r>   -17.7856    -0.0000    -0.0000 </r>
       <r>   -17.7180    -0.0000    -0.0000 </r>
       <r>   -17.6505    -0.0000    -0.0000 </r>
       <r>   -17.5829    -0.0000    -0.0000 </r>
       <r>   -17.5154    -0.0000    -0.0000 </r>
       <r>   -17.4479    -0.0000    -0.0000 </r>
       <r>   -17.3803    -0.0000    -0.0000 </r>
       <r>   -17.3128    -0.0003    -0.0000 </r>
       <r>   -17.2453    -0.0121    -0.0008 </r>
       <r>   -17.1777    -0.1510    -0.0110 </r>
       <r>   -17.1102    -0.3615    -0.0355 </r>
       <r>   -17.0426     2.0992     0.1063 </r>
       <r>   -16.9751     7.4505     0.6095 </r>
       <r>   -16.9076     5.6569     0.9916 </r>
       <r>   -16.8400     0.5464     1.0285 </r>
       <r>   -16.7725    -0.3525     1.0047 </r>
       <r>   -16.7049    -0.0656     1.0002 </r>
       <r>   -16.6374    -0.0034     1.0000 </r>
       <r>   -16.5699    -0.0001     1.0000 </r>
       <r>   -16.5023    -0.0000     1.0000 </r>
       <r>   -16.4348    -0.0000     1.0000 </r>
       <r>   -16.3673    -0.0000     1.0000 </r>
       <r>   -16.2997     0.0000     1.0000 </r>
       <r>   -16.2322     0.0000     1.0000 </r>
       <r>   -16.1646     0.0000     1.0000 </r>
       <r>   -16.0971     0.0000     1.0000 </r>
       <r>   -16.0296     0.0000     1.0000 </r>
       <r>   -15.9620     0.0000     1.0000 </r>
       <r>   -15.8945     0.0000     1.0000 </r>
       <r>   -15.8270     0.0000     1.0000 </r>
       <r>   -15.7594     0.0000     1.0000 </r>
       <r>   -15.6919     0.0000     1.0000 </r>
       <r>   -15.6243     0.0000     1.0000 </r>
       <r>   -15.5568     0.0000     1.0000 </r>
       <r>   -15.4893     0.0000     1.0000 </r>
       <r>   -15.4217     0.0000     1.0000 </r>
       <r>   -15.3542     0.0000     1.0000 </r>
       <r>   -15.2866     0.0000     1.0000 </r>
       <r>   -15.2191     0.0000     1.0000 </r>
       <r>   -15.1516     0.0000     1.0000 </r>
       <r>   -15.0840     0.0000     1.0000 </r>
       <r>   -15.0165     0.0000     1.0000 </r>
       <r>   -14.9490     0.0000     1.0000 </r>
       <r>   -14.8814     0.0000     1.0000 </r>
       <r>   -14.8139     0.0000     1.0000 </r>
       <r>   -14.7463     0.0000     1.0000 </r>
       <r>   -14.6788     0.0000     1.0000 </r>
       <r>   -14.6113     0.0000     1.0000 </r>
       <r>   -14.5437     0.0000     1.0000 </r>
       <r>   -14.4762     0.0000     1.0000 </r>
       <r>   -14.4087     0.0000     1.0000 </r>
       <r>   -14.3411     0.0000     1.0000 </r>
       <r>   -14.2736     0.0000     1.0000 </r>
       <r>   -14.2060     0.0000     1.0000 </r>
       <r>   -14.1385     0.0000     1.0000 </r>
       <r>   -14.0710     0.0000     1.0000 </r>
       <r>   -14.0034     0.0000     1.0000 </r>
       <r>   -13.9359     0.0000     1.0000 </r>
       <r>   -13.8683     0.0000     1.0000 </r>
       <r>   -13.8008     0.0000     1.0000 </r>
       <r>   -13.7333     0.0000     1.0000 </r>
       <r>   -13.6657     0.0000     1.0000 </r>
       <r>   -13.5982     0.0000     1.0000 </r>
       <r>   -13.5307     0.0000     1.0000 </r>
       <r>   -13.4631     0.0000     1.0000 </r>
       <r>   -13.3956     0.0000     1.0000 </r>
       <r>   -13.3280     0.0000     1.0000 </r>
       <r>   -13.2605     0.0000     1.0000 </r>
       <r>   -13.1930     0.0000     1.0000 </r>
       <r>   -13.1254     0.0000     1.0000 </r>
       <r>   -13.0579     0.0000     1.0000 </r>
       <r>   -12.9904     0.0000     1.0000 </r>
       <r>   -12.9228     0.0000     1.0000 </r>
       <r>   -12.8553     0.0000     1.0000 </r>
       <r>   -12.7877     0.0000     1.0000 </r>
       <r>   -12.7202     0.0000     1.0000 </r>
       <r>   -12.6527     0.0000     1.0000 </r>
       <r>   -12.5851     0.0000     1.0000 </r>
       <r>   -12.5176     0.0000     1.0000 </r>
       <r>   -12.4500     0.0000     1.0000 </r>
       <r>   -12.3825     0.0000     1.0000 </r>
       <r>   -12.3150     0.0000     1.0000 </r>
       <r>   -12.2474     0.0000     1.0000 </r>
       <r>   -12.1799     0.0000     1.0000 </r>
       <r>   -12.1124     0.0000     1.0000 </r>
       <r>   -12.0448     0.0000     1.0000 </r>
       <r>   -11.9773     0.0000     1.0000 </r>
       <r>   -11.9097     0.0000     1.0000 </r>
       <r>   -11.8422     0.0000     1.0000 </r>
       <r>   -11.7747     0.0000     1.0000 </r>
       <r>   -11.7071     0.0000     1.0000 </r>
       <r>   -11.6396     0.0000     1.0000 </r>
       <r>   -11.5721     0.0000     1.0000 </r>
       <r>   -11.5045     0.0000     1.0000 </r>
       <r>   -11.4370     0.0000     1.0000 </r>
       <r>   -11.3694     0.0000     1.0000 </r>
       <r>   -11.3019     0.0000     1.0000 </r>
       <r>   -11.2344     0.0000     1.0000 </r>
       <r>   -11.1668     0.0000     1.0000 </r>
       <r>   -11.0993     0.0000     1.0000 </r>
       <r>   -11.0318     0.0000     1.0000 </r>
       <r>   -10.9642     0.0000     1.0000 </r>
       <r>   -10.8967     0.0000     1.0000 </r>
       <r>   -10.8291     0.0000     1.0000 </r>
       <r>   -10.7616     0.0000     1.0000 </r>
       <r>   -10.6941     0.0000     1.0000 </r>
       <r>   -10.6265     0.0000     1.0000 </r>
       <r>   -10.5590     0.0000     1.0000 </r>
       <r>   -10.4914     0.0000     1.0000 </r>
       <r>   -10.4239     0.0000     1.0000 </r>
       <r>   -10.3564     0.0000     1.0000 </r>
       <r>   -10.2888     0.0000     1.0000 </r>
       <r>   -10.2213    -0.0000     1.0000 </r>
       <r>   -10.1538    -0.0000     1.0000 </r>
       <r>   -10.0862    -0.0000     1.0000 </r>
       <r>   -10.0187    -0.0000     1.0000 </r>
       <r>    -9.9511    -0.0000     1.0000 </r>
       <r>    -9.8836    -0.0000     1.0000 </r>
       <r>    -9.8161    -0.0000     1.0000 </r>
       <r>    -9.7485    -0.0001     1.0000 </r>
       <r>    -9.6810    -0.0075     0.9995 </r>
       <r>    -9.6135    -0.1607     0.9886 </r>
       <r>    -9.5459    -0.9848     0.9221 </r>
       <r>    -9.4784     0.9645     0.9873 </r>
       <r>    -9.4108    15.5175     2.0353 </r>
       <r>    -9.3433    23.0435     3.5916 </r>
       <r>    -9.2758     7.5946     4.1045 </r>
       <r>    -9.2082    -0.9721     4.0389 </r>
       <r>    -9.1407    -0.5275     4.0032 </r>
       <r>    -9.0731    -0.0467     4.0001 </r>
       <r>    -9.0056    -0.0014     4.0000 </r>
       <r>    -8.9381    -0.0000     4.0000 </r>
       <r>    -8.8705    -0.0000     4.0000 </r>
       <r>    -8.8030    -0.0000     4.0000 </r>
       <r>    -8.7355    -0.0000     4.0000 </r>
       <r>    -8.6679     0.0000     4.0000 </r>
       <r>    -8.6004     0.0000     4.0000 </r>
       <r>    -8.5328     0.0000     4.0000 </r>
       <r>    -8.4653     0.0000     4.0000 </r>
       <r>    -8.3978     0.0000     4.0000 </r>
       <r>    -8.3302     0.0000     4.0000 </r>
       <r>    -8.2627     0.0000     4.0000 </r>
       <r>    -8.1952     0.0000     4.0000 </r>
       <r>    -8.1276     0.0000     4.0000 </r>
       <r>    -8.0601     0.0000     4.0000 </r>
       <r>    -7.9925     0.0000     4.0000 </r>
       <r>    -7.9250     0.0000     4.0000 </r>
       <r>    -7.8575     0.0000     4.0000 </r>
       <r>    -7.7899     0.0000     4.0000 </r>
       <r>    -7.7224     0.0000     4.0000 </r>
       <r>    -7.6548     0.0000     4.0000 </r>
       <r>    -7.5873     0.0000     4.0000 </r>
       <r>    -7.5198     0.0000     4.0000 </r>
       <r>    -7.4522     0.0000     4.0000 </r>
       <r>    -7.3847     0.0000     4.0000 </r>
       <r>    -7.3172     0.0000     4.0000 </r>
       <r>    -7.2496     0.0000     4.0000 </r>
       <r>    -7.1821     0.0000     4.0000 </r>
       <r>    -7.1145     0.0000     4.0000 </r>
       <r>    -7.0470     0.0000     4.0000 </r>
       <r>    -6.9795     0.0000     4.0000 </r>
       <r>    -6.9119     0.0000     4.0000 </r>
       <r>    -6.8444     0.0000     4.0000 </r>
       <r>    -6.7769     0.0000     4.0000 </r>
       <r>    -6.7093     0.0000     4.0000 </r>
       <r>    -6.6418     0.0000     4.0000 </r>
       <r>    -6.5742     0.0000     4.0000 </r>
       <r>    -6.5067     0.0000     4.0000 </r>
       <r>    -6.4392     0.0000     4.0000 </r>
       <r>    -6.3716     0.0000     4.0000 </r>
       <r>    -6.3041     0.0000     4.0000 </r>
       <r>    -6.2365     0.0000     4.0000 </r>
       <r>    -6.1690     0.0000     4.0000 </r>
       <r>    -6.1015     0.0000     4.0000 </r>
       <r>    -6.0339     0.0000     4.0000 </r>
       <r>    -5.9664     0.0000     4.0000 </r>
       <r>    -5.8989     0.0000     4.0000 </r>
       <r>    -5.8313     0.0000     4.0000 </r>
       <r>    -5.7638     0.0000     4.0000 </r>
       <r>    -5.6962     0.0000     4.0000 </r>
       <r>    -5.6287     0.0000     4.0000 </r>
       <r>    -5.5612     0.0000     4.0000 </r>
       <r>    -5.4936     0.0000     4.0000 </r>
       <r>    -5.4261     0.0000     4.0000 </r>
       <r>    -5.3586     0.0000     4.0000 </r>
       <r>    -5.2910     0.0000     4.0000 </r>
       <r>    -5.2235     0.0000     4.0000 </r>
       <r>    -5.1559     0.0000     4.0000 </r>
       <r>    -5.0884     0.0000     4.0000 </r>
       <r>    -5.0209     0.0000     4.0000 </r>
       <r>    -4.9533     0.0000     4.0000 </r>
       <r>    -4.8858     0.0000     4.0000 </r>
       <r>    -4.8182     0.0000     4.0000 </r>
       <r>    -4.7507     0.0000     4.0000 </r>
       <r>    -4.6832     0.0000     4.0000 </r>
       <r>    -4.6156     0.0000     4.0000 </r>
       <r>    -4.5481     0.0000     4.0000 </r>
       <r>    -4.4806     0.0000     4.0000 </r>
       <r>    -4.4130     0.0000     4.0000 </r>
[...]
       <r>    -3.3999     0.0000     4.0000 </r>
       <r>    -3.3324     0.0000     4.0000 </r>
       <r>    -3.2649     0.0000     4.0000 </r>
       <r>    -3.1973     0.0000     4.0000 </r>
       <r>    -3.1298     0.0000     4.0000 </r>
       <r>    -3.0623     0.0000     4.0000 </r>
       <r>    -2.9947     0.0000     4.0000 </r>
       <r>    -2.9272     0.0000     4.0000 </r>
       <r>    -2.8596     0.0000     4.0000 </r>
       <r>    -2.7921     0.0000     4.0000 </r>
       <r>    -2.7246     0.0000     4.0000 </r>
       <r>    -2.6570     0.0000     4.0000 </r>
       <r>    -2.5895     0.0000     4.0000 </r>
       <r>    -2.5220     0.0000     4.0000 </r>
       <r>    -2.4544     0.0000     4.0000 </r>
       <r>    -2.3869     0.0000     4.0000 </r>
       <r>    -2.3193     0.0000     4.0000 </r>
       <r>    -2.2518     0.0000     4.0000 </r>
       <r>    -2.1843     0.0000     4.0000 </r>
       <r>    -2.1167     0.0000     4.0000 </r>
       <r>    -2.0492     0.0000     4.0000 </r>
       <r>    -1.9816     0.0000     4.0000 </r>
       <r>    -1.9141     0.0000     4.0000 </r>
       <r>    -1.8466     0.0000     4.0000 </r>
       <r>    -1.7790     0.0000     4.0000 </r>
       <r>    -1.7115     0.0000     4.0000 </r>
       <r>    -1.6440     0.0000     4.0000 </r>
       <r>    -1.5764     0.0000     4.0000 </r>
       <r>    -1.5089     0.0000     4.0000 </r>
       <r>    -1.4413     0.0000     4.0000 </r>
       <r>    -1.3738     0.0000     4.0000 </r>
       <r>    -1.3063    -0.0000     4.0000 </r>
       <r>    -1.2387    -0.0000     4.0000 </r>
       <r>    -1.1712    -0.0000     4.0000 </r>
       <r>    -1.1037    -0.0000     4.0000 </r>
       <r>    -1.0361    -0.0000     4.0000 </r>
       <r>    -0.9686    -0.0000     4.0000 </r>
       <r>    -0.9010    -0.0000     4.0000 </r>
       <r>    -0.8335    -0.0000     4.0000 </r>
       <r>    -0.7660    -0.0001     4.0000 </r>
       <r>    -0.6984    -0.0026     3.9998 </r>
       <r>    -0.6309    -0.0304     3.9978 </r>
       <r>    -0.5633    -0.0955     3.9913 </r>
       <r>    -0.4958     0.2101     4.0055 </r>
       <r>    -0.4283     1.6096     4.1142 </r>
       <r>    -0.3607     3.8041     4.3711 </r>
       <r>    -0.2932     5.3326     4.7313 </r>
       <r>    -0.2257     3.6629     4.9787 </r>
       <r>    -0.1581     0.5953     5.0189 </r>
       <r>    -0.0906    -0.2165     5.0043 </r>
       <r>    -0.0230    -0.0699     4.9995 </r>
       <r>     0.0445    -0.0707     4.9948 </r>
       <r>     0.1120    -0.0261     4.9930 </r>
       <r>     0.1796     0.7755     5.0454 </r>
       <r>     0.2471     2.3211     5.2021 </r>
       <r>     0.3146     4.3996     5.4993 </r>
       <r>     0.3822     6.8256     5.9603 </r>
       <r>     0.4497     7.0447     6.4360 </r>
       <r>     0.5173     7.4517     6.9393 </r>
       <r>     0.5848     5.2426     7.2934 </r>
       <r>     0.6523     1.4785     7.3932 </r>
       <r>     0.7199     2.0834     7.5340 </r>
       <r>     0.7874     4.3038     7.8246 </r>
       <r>     0.8550     7.5979     8.3378 </r>
       <r>     0.9225    10.8808     9.0726 </r>
       <r>     0.9900    10.7267     9.7971 </r>
       <r>     1.0576     6.1553    10.2128 </r>
       <r>     1.1251     4.1150    10.4907 </r>
       <r>     1.1926     3.2970    10.7134 </r>
       <r>     1.2602     2.3524    10.8723 </r>
       <r>     1.3277     1.6489    10.9836 </r>
       <r>     1.3953     0.3752    11.0090 </r>
       <r>     1.4628    -0.0963    11.0025 </r>
       <r>     1.5303    -0.0340    11.0002 </r>
       <r>     1.5979    -0.0026    11.0000 </r>
       <r>     1.6654    -0.0001    11.0000 </r>
       <r>     1.7329    -0.0000    11.0000 </r>
       <r>     1.8005    -0.0000    11.0000 </r>
       <r>     1.8680    -0.0000    11.0000 </r>
       <r>     1.9356    -0.0000    11.0000 </r>
       <r>     2.0031     0.0000    11.0000 </r>
       <r>     2.0706     0.0000    11.0000 </r>
       <r>     2.1382     0.0000    11.0000 </r>
       <r>     2.2057     0.0000    11.0000 </r>
       <r>     2.2733     0.0000    11.0000 </r>
      </set>
      <set comment="spin 2">
       <r>   -17.9882     0.0000     0.0000 </r>
       <r>   -17.9206     0.0000     0.0000 </r>
       <r>   -17.8531     0.0000     0.0000 </r>
       <r>   -17.7856     0.0000     0.0000 </r>
       <r>   -17.7180    -0.0000    -0.0000 </r>
       <r>   -17.6505    -0.0000    -0.0000 </r>
       <r>   -17.5829    -0.0000    -0.0000 </r>
       <r>   -17.5154    -0.0000    -0.0000 </r>
       <r>   -17.4479    -0.0000    -0.0000 </r>
       <r>   -17.3803    -0.0000    -0.0000 </r>
       <r>   -17.3128    -0.0000    -0.0000 </r>
       <r>   -17.2453    -0.0001    -0.0000 </r>
       <r>   -17.1777    -0.0031    -0.0002 </r>
       <r>   -17.1102    -0.0619    -0.0044 </r>
       <r>   -17.0426    -0.3459    -0.0278 </r>
       <r>   -16.9751     0.4772     0.0045 </r>
       <r>   -16.9076     5.5183     0.3772 </r>
       <r>   -16.8400     7.5243     0.8853 </r>
       <r>   -16.7725     2.2217     1.0354 </r>
       <r>   -16.7049    -0.3526     1.0116 </r>
       <r>   -16.6374    -0.1580     1.0009 </r>
       <r>   -16.5699    -0.0130     1.0000 </r>
       <r>   -16.5023    -0.0004     1.0000 </r>
       <r>   -16.4348    -0.0000     1.0000 </r>
       <r>   -16.3673    -0.0000     1.0000 </r>
       <r>   -16.2997    -0.0000     1.0000 </r>
       <r>   -16.2322    -0.0000     1.0000 </r>
       <r>   -16.1646     0.0000     1.0000 </r>
       <r>   -16.0971     0.0000     1.0000 </r>
       <r>   -16.0296     0.0000     1.0000 </r>
       <r>   -15.9620     0.0000     1.0000 </r>
       <r>   -15.8945     0.0000     1.0000 </r>
       <r>   -15.8270     0.0000     1.0000 </r>
       <r>   -15.7594     0.0000     1.0000 </r>
       <r>   -15.6919     0.0000     1.0000 </r>
       <r>   -15.6243     0.0000     1.0000 </r>
       <r>   -15.5568     0.0000     1.0000 </r>
       <r>   -15.4893     0.0000     1.0000 </r>
       <r>   -15.4217     0.0000     1.0000 </r>
       <r>   -15.3542     0.0000     1.0000 </r>
       <r>   -15.2866     0.0000     1.0000 </r>
       <r>   -15.2191     0.0000     1.0000 </r>
       <r>   -15.1516     0.0000     1.0000 </r>
       <r>   -15.0840     0.0000     1.0000 </r>
       <r>   -15.0165     0.0000     1.0000 </r>
       <r>   -14.9490     0.0000     1.0000 </r>
       <r>   -14.8814     0.0000     1.0000 </r>
       <r>   -14.8139     0.0000     1.0000 </r>
       <r>   -14.7463     0.0000     1.0000 </r>
       <r>   -14.6788     0.0000     1.0000 </r>
       <r>   -14.6113     0.0000     1.0000 </r>
       <r>   -14.5437     0.0000     1.0000 </r>
       <r>   -14.4762     0.0000     1.0000 </r>
       <r>   -14.4087     0.0000     1.0000 </r>
       <r>   -14.3411     0.0000     1.0000 </r>
       <r>   -14.2736     0.0000     1.0000 </r>
       <r>   -14.2060     0.0000     1.0000 </r>
       <r>   -14.1385     0.0000     1.0000 </r>
       <r>   -14.0710     0.0000     1.0000 </r>
       <r>   -14.0034     0.0000     1.0000 </r>
       <r>   -13.9359     0.0000     1.0000 </r>
       <r>   -13.8683     0.0000     1.0000 </r>
       <r>   -13.8008     0.0000     1.0000 </r>
       <r>   -13.7333     0.0000     1.0000 </r>
       <r>   -13.6657     0.0000     1.0000 </r>
       <r>   -13.5982     0.0000     1.0000 </r>
       <r>   -13.5307     0.0000     1.0000 </r>
       <r>   -13.4631     0.0000     1.0000 </r>
       <r>   -13.3956     0.0000     1.0000 </r>
       <r>   -13.3280     0.0000     1.0000 </r>
       <r>   -13.2605     0.0000     1.0000 </r>
       <r>   -13.1930     0.0000     1.0000 </r>
       <r>   -13.1254     0.0000     1.0000 </r>
       <r>   -13.0579     0.0000     1.0000 </r>
       <r>   -12.9904     0.0000     1.0000 </r>
       <r>   -12.9228     0.0000     1.0000 </r>
       <r>   -12.8553     0.0000     1.0000 </r>
       <r>   -12.7877     0.0000     1.0000 </r>
       <r>   -12.7202     0.0000     1.0000 </r>
       <r>   -12.6527     0.0000     1.0000 </r>
       <r>   -12.5851     0.0000     1.0000 </r>
       <r>   -12.5176     0.0000     1.0000 </r>
       <r>   -12.4500     0.0000     1.0000 </r>
       <r>   -12.3825     0.0000     1.0000 </r>
       <r>   -12.3150     0.0000     1.0000 </r>
       <r>   -12.2474     0.0000     1.0000 </r>
       <r>   -12.1799     0.0000     1.0000 </r>
       <r>   -12.1124     0.0000     1.0000 </r>
       <r>   -12.0448     0.0000     1.0000 </r>
       <r>   -11.9773     0.0000     1.0000 </r>
       <r>   -11.9097     0.0000     1.0000 </r>
       <r>   -11.8422     0.0000     1.0000 </r>
       <r>   -11.7747     0.0000     1.0000 </r>
       <r>   -11.7071     0.0000     1.0000 </r>
       <r>   -11.6396     0.0000     1.0000 </r>
       <r>   -11.5721     0.0000     1.0000 </r>
       <r>   -11.5045     0.0000     1.0000 </r>
       <r>   -11.4370     0.0000     1.0000 </r>
       <r>   -11.3694     0.0000     1.0000 </r>
       <r>   -11.3019     0.0000     1.0000 </r>
       <r>   -11.2344     0.0000     1.0000 </r>
       <r>   -11.1668     0.0000     1.0000 </r>
       <r>   -11.0993     0.0000     1.0000 </r>
       <r>   -11.0318     0.0000     1.0000 </r>
       <r>   -10.9642     0.0000     1.0000 </r>
       <r>   -10.8967     0.0000     1.0000 </r>
       <r>   -10.8291     0.0000     1.0000 </r>
       <r>   -10.7616     0.0000     1.0000 </r>
       <r>   -10.6941     0.0000     1.0000 </r>
       <r>   -10.6265     0.0000     1.0000 </r>
       <r>   -10.5590     0.0000     1.0000 </r>
       <r>   -10.4914     0.0000     1.0000 </r>
       <r>   -10.4239     0.0000     1.0000 </r>
       <r>   -10.3564     0.0000     1.0000 </r>
       <r>   -10.2888     0.0000     1.0000 </r>
       <r>   -10.2213     0.0000     1.0000 </r>
       <r>   -10.1538    -0.0000     1.0000 </r>
       <r>   -10.0862    -0.0000     1.0000 </r>
       <r>   -10.0187    -0.0000     1.0000 </r>
       <r>    -9.9511    -0.0000     1.0000 </r>
       <r>    -9.8836    -0.0000     1.0000 </r>
       <r>    -9.8161    -0.0000     1.0000 </r>
       <r>    -9.7485    -0.0000     1.0000 </r>
       <r>    -9.6810    -0.0000     1.0000 </r>
       <r>    -9.6135    -0.0020     0.9999 </r>
       <r>    -9.5459    -0.0616     0.9957 </r>
       <r>    -9.4784    -0.6181     0.9540 </r>
       <r>    -9.4108    -0.7705     0.9019 </r>
       <r>    -9.3433     9.1501     1.5199 </r>
       <r>    -9.2758    23.5755     3.1121 </r>
       <r>    -9.2082    13.8333     4.0464 </r>
       <r>    -9.1407     0.3367     4.0692 </r>
       <r>    -9.0731    -0.8919     4.0089 </r>
       <r>    -9.0056    -0.1266     4.0004 </r>
       <r>    -8.9381    -0.0054     4.0000 </r>
       <r>    -8.8705    -0.0001     4.0000 </r>
       <r>    -8.8030    -0.0000     4.0000 </r>
       <r>    -8.7355    -0.0000     4.0000 </r>
       <r>    -8.6679    -0.0000     4.0000 </r>
       <r>    -8.6004     0.0000     4.0000 </r>
       <r>    -8.5328     0.0000     4.0000 </r>
       <r>    -8.4653     0.0000     4.0000 </r>
       <r>    -8.3978     0.0000     4.0000 </r>
       <r>    -8.3302     0.0000     4.0000 </r>
       <r>    -8.2627     0.0000     4.0000 </r>
       <r>    -8.1952     0.0000     4.0000 </r>
       <r>    -8.1276     0.0000     4.0000 </r>
       <r>    -8.0601     0.0000     4.0000 </r>
       <r>    -7.9925     0.0000     4.0000 </r>
       <r>    -7.9250     0.0000     4.0000 </r>
       <r>    -7.8575     0.0000     4.0000 </r>
       <r>    -7.7899     0.0000     4.0000 </r>
       <r>    -7.7224     0.0000     4.0000 </r>
       <r>    -7.6548     0.0000     4.0000 </r>
       <r>    -7.5873     0.0000     4.0000 </r>
       <r>    -7.5198     0.0000     4.0000 </r>
       <r>    -7.4522     0.0000     4.0000 </r>
       <r>    -7.3847     0.0000     4.0000 </r>
       <r>    -7.3172     0.0000     4.0000 </r>
       <r>    -7.2496     0.0000     4.0000 </r>
       <r>    -7.1821     0.0000     4.0000 </r>
       <r>    -7.1145     0.0000     4.0000 </r>
       <r>    -7.0470     0.0000     4.0000 </r>
       <r>    -6.9795     0.0000     4.0000 </r>
       <r>    -6.9119     0.0000     4.0000 </r>
       <r>    -6.8444     0.0000     4.0000 </r>
       <r>    -6.7769     0.0000     4.0000 </r>
       <r>    -6.7093     0.0000     4.0000 </r>
       <r>    -6.6418     0.0000     4.0000 </r>
       <r>    -6.5742     0.0000     4.0000 </r>
       <r>    -6.5067     0.0000     4.0000 </r>
       <r>    -6.4392     0.0000     4.0000 </r>
       <r>    -6.3716     0.0000     4.0000 </r>
       <r>    -6.3041     0.0000     4.0000 </r>
       <r>    -6.2365     0.0000     4.0000 </r>
       <r>    -6.1690     0.0000     4.0000 </r>
       <r>    -6.1015     0.0000     4.0000 </r>
       <r>    -6.0339     0.0000     4.0000 </r>
       <r>    -5.9664     0.0000     4.0000 </r>
       <r>    -5.8989     0.0000     4.0000 </r>
       <r>    -5.8313     0.0000     4.0000 </r>
       <r>    -5.7638     0.0000     4.0000 </r>
       <r>    -5.6962     0.0000     4.0000 </r>
       <r>    -5.6287     0.0000     4.0000 </r>
       <r>    -5.5612     0.0000     4.0000 </r>
       <r>    -5.4936     0.0000     4.0000 </r>
       <r>    -5.4261     0.0000     4.0000 </r>
       <r>    -5.3586     0.0000     4.0000 </r>
       <r>    -5.2910     0.0000     4.0000 </r>
       <r>    -5.2235     0.0000     4.0000 </r>
       <r>    -5.1559     0.0000     4.0000 </r>
       <r>    -5.0884     0.0000     4.0000 </r>
       <r>    -5.0209     0.0000     4.0000 </r>
       <r>    -4.9533     0.0000     4.0000 </r>
       <r>    -4.8858     0.0000     4.0000 </r>
       <r>    -4.8182     0.0000     4.0000 </r>
       <r>    -4.7507     0.0000     4.0000 </r>
       <r>    -4.6832     0.0000     4.0000 </r>
       <r>    -4.6156     0.0000     4.0000 </r>
       <r>    -4.5481     0.0000     4.0000 </r>
       <r>    -4.4806     0.0000     4.0000 </r>
       <r>    -4.4130     0.0000     4.0000 </r>
       <r>    -4.3455     0.0000     4.0000 </r>
       <r>    -4.2779     0.0000     4.0000 </r>
       <r>    -4.2104     0.0000     4.0000 </r>
       <r>    -4.1429     0.0000     4.0000 </r>
       <r>    -4.0753     0.0000     4.0000 </r>
       <r>    -4.0078     0.0000     4.0000 </r>
       <r>    -3.9403     0.0000     4.0000 </r>
       <r>    -3.8727     0.0000     4.0000 </r>
       <r>    -3.8052     0.0000     4.0000 </r>
       <r>    -3.7376     0.0000     4.0000 </r>
       <r>    -3.6701     0.0000     4.0000 </r>
       <r>    -3.6026     0.0000     4.0000 </r>
       <r>    -3.5350     0.0000     4.0000 </r>
       <r>    -3.4675     0.0000     4.0000 </r>
       <r>    -3.3999     0.0000     4.0000 </r>
       <r>    -3.3324     0.0000     4.0000 </r>
       <r>    -3.2649     0.0000     4.0000 </r>
       <r>    -3.1973     0.0000     4.0000 </r>
       <r>    -3.1298     0.0000     4.0000 </r>
       <r>    -3.0623     0.0000     4.0000 </r>
       <r>    -2.9947     0.0000     4.0000 </r>
       <r>    -2.9272     0.0000     4.0000 </r>
       <r>    -2.8596     0.0000     4.0000 </r>
       <r>    -2.7921     0.0000     4.0000 </r>
       <r>    -2.7246     0.0000     4.0000 </r>
       <r>    -2.6570     0.0000     4.0000 </r>
       <r>    -2.5895     0.0000     4.0000 </r>
       <r>    -2.5220     0.0000     4.0000 </r>
       <r>    -2.4544     0.0000     4.0000 </r>
       <r>    -2.3869     0.0000     4.0000 </r>
       <r>    -2.3193     0.0000     4.0000 </r>
       <r>    -2.2518     0.0000     4.0000 </r>
       <r>    -2.1843     0.0000     4.0000 </r>
       <r>    -2.1167     0.0000     4.0000 </r>
       <r>    -2.0492     0.0000     4.0000 </r>
       <r>    -1.9816     0.0000     4.0000 </r>
       <r>    -1.9141     0.0000     4.0000 </r>
       <r>    -1.8466     0.0000     4.0000 </r>
       <r>    -1.7790     0.0000     4.0000 </r>
       <r>    -1.7115     0.0000     4.0000 </r>
       <r>    -1.6440     0.0000     4.0000 </r>
       <r>    -1.5764     0.0000     4.0000 </r>
       <r>    -1.5089     0.0000     4.0000 </r>
       <r>    -1.4413     0.0000     4.0000 </r>
       <r>    -1.3738     0.0000     4.0000 </r>
       <r>    -1.3063    -0.0000     4.0000 </r>
       <r>    -1.2387    -0.0000     4.0000 </r>
       <r>    -1.1712    -0.0000     4.0000 </r>
       <r>    -1.1037    -0.0000     4.0000 </r>
       <r>    -1.0361    -0.0000     4.0000 </r>
       <r>    -0.9686    -0.0000     4.0000 </r>
       <r>    -0.9010    -0.0000     4.0000 </r>
       <r>    -0.8335    -0.0000     4.0000 </r>
       <r>    -0.7660    -0.0001     4.0000 </r>
       <r>    -0.6984    -0.0024     3.9998 </r>
       <r>    -0.6309    -0.0281     3.9979 </r>
       <r>    -0.5633    -0.0896     3.9919 </r>
       <r>    -0.4958     0.1888     4.0046 </r>
       <r>    -0.4283     1.4817     4.1047 </r>
       <r>    -0.3607     3.5381     4.3437 </r>
       <r>    -0.2932     5.1706     4.6929 </r>
       <r>    -0.2257     3.9733     4.9612 </r>
       <r>    -0.1581     0.8645     5.0196 </r>
       <r>    -0.0906    -0.2096     5.0055 </r>
       <r>    -0.0230    -0.0855     4.9997 </r>
       <r>     0.0445    -0.0759     4.9946 </r>
       <r>     0.1120    -0.0439     4.9916 </r>
       <r>     0.1796     0.7999     5.0456 </r>
       <r>     0.2471     2.4494     5.2110 </r>
       <r>     0.3146     4.7377     5.5310 </r>
       <r>     0.3822     7.1566     6.0144 </r>
       <r>     0.4497     7.1440     6.4969 </r>
       <r>     0.5173     7.4190     6.9979 </r>
       <r>     0.5848     4.6513     7.3121 </r>
       <r>     0.6523     1.1759     7.3915 </r>
       <r>     0.7199     2.1151     7.5343 </r>
       <r>     0.7874     4.2173     7.8192 </r>
       <r>     0.8550     7.8137     8.3469 </r>
       <r>     0.9225    11.7295     9.1391 </r>
       <r>     0.9900    10.9050     9.8756 </r>
       <r>     1.0576     5.6657    10.2582 </r>
       <r>     1.1251     3.7781    10.5134 </r>
       <r>     1.1926     3.1640    10.7271 </r>
       <r>     1.2602     2.3805    10.8879 </r>
       <r>     1.3277     1.5209    10.9906 </r>
       <r>     1.3953     0.2665    11.0086 </r>
       <r>     1.4628    -0.0976    11.0020 </r>
       <r>     1.5303    -0.0274    11.0001 </r>
       <r>     1.5979    -0.0019    11.0000 </r>
       <r>     1.6654    -0.0000    11.0000 </r>
       <r>     1.7329    -0.0000    11.0000 </r>
       <r>     1.8005    -0.0000    11.0000 </r>
       <r>     1.8680    -0.0000    11.0000 </r>
       <r>     1.9356    -0.0000    11.0000 </r>
       <r>     2.0031     0.0000    11.0000 </r>
       <r>     2.0706     0.0000    11.0000 </r>
       <r>     2.1382     0.0000    11.0000 </r>
       <r>     2.2057     0.0000    11.0000 </r>
       <r>     2.2733     0.0000    11.0000 </r>
      </set>
     </set>
    </array>
   </total>
  </dos>
 </calculation>
 <structure name="finalpos" >
  <crystal>
   <varray name="basis" >
    <v>      10.16000000       0.00000000       0.00000000 </v>
    <v>       0.00000000      11.76000000       0.00000000 </v>
    <v>       0.00000000       0.00000000      15.00000000 </v>
   </varray>
   <i name="volume">   1792.22400000 </i>
   <varray name="rec_basis" >
    <v>       0.09842520       0.00000000       0.00000000 </v>
    <v>       0.00000000       0.08503401       0.00000000 </v>
    <v>       0.00000000       0.00000000       0.06666667 </v>
   </varray>
  </crystal>
  <varray name="positions" >
   <v>      -0.00000333      -0.00000815       0.00000163 </v>
   <v>       0.10787835       0.00000212      -0.00000230 </v>
   <v>       0.96403627       0.05169015       0.05570964 </v>
   <v>       0.96403830       0.91261920       0.00724239 </v>
   <v>       0.96404041       0.03569667       0.93704864 </v>
  </varray>
 </structure>
</modeling>
