Beta12Borophene !The name of the system 
           1
    10.160000    0.000000    0.000000
     0.000000   11.760000    0.000000
     0.000000    0.000000   15.000000
   C    H 
   1   4
Direct configuration=     1
   0.00000000  0.00000000  0.00000000
   0.10919000  0.00000000  0.00000000
   0.96360000  0.05232000  0.05639000
   0.96360000  0.91155000  0.00733000
   0.96360000  0.03613000  0.93628000
Direct configuration=     2
  -0.00000505 -0.00001234  0.00000248
   0.10720349  0.00000322 -0.00000349
   0.96426074  0.05136609  0.05535959
   0.96426381  0.91316933  0.00719732
   0.96426701  0.03547371  0.93744411
Direct configuration=     3
  -0.00000333 -0.00000815  0.00000163
   0.10787835  0.00000212 -0.00000230
   0.96403627  0.05169015  0.05570964
   0.96403830  0.91261920  0.00724239
   0.96404041  0.03569667  0.93704864
