       N       E                     dE             d eps       ncg     rms          rms(c)
DAV:   1     0.911503677941E+03    0.91150E+03   -0.42209E+04  2112   0.106E+03
DAV:   2    -0.151538267064E+03   -0.10630E+04   -0.10182E+04  3032   0.244E+02
DAV:   3    -0.303349070405E+03   -0.15181E+03   -0.15025E+03  2424   0.101E+02
DAV:   4    -0.309244113011E+03   -0.58950E+01   -0.58394E+01  2952   0.263E+01
DAV:   5    -0.309446519321E+03   -0.20241E+00   -0.20136E+00  3112   0.365E+00    0.492E+01
DAV:   6    -0.410125477905E+03   -0.10068E+03   -0.79981E+02  3690   0.539E+01    0.300E+02
DAV:   7    -0.406219120572E+03    0.39064E+01   -0.28410E+02  2777   0.456E+01    0.141E+02
DAV:   8    -0.287118380215E+03    0.11910E+03   -0.14160E+02  2528   0.435E+01    0.475E+01
DAV:   9    -0.259033583073E+03    0.28085E+02   -0.72171E+01  2544   0.683E+01    0.248E+01
DAV:  10    -0.260340555988E+03   -0.13070E+01   -0.16237E+01  2864   0.159E+01    0.217E+01
DAV:  11    -0.259112478139E+03    0.12281E+01   -0.90047E+00  3048   0.384E+01    0.331E+01
DAV:  12    -0.261174443767E+03   -0.20620E+01   -0.29652E+01  2968   0.155E+01    0.225E+01
DAV:  13    -0.257704979559E+03    0.34695E+01   -0.12797E+00  2984   0.122E+01    0.198E+01
DAV:  14    -0.254945945292E+03    0.27590E+01   -0.25981E+00  2976   0.144E+01    0.112E+01
DAV:  15    -0.254754719033E+03    0.19123E+00   -0.13563E+00  2760   0.225E+00    0.676E+00
DAV:  16    -0.254734593307E+03    0.20126E-01   -0.11799E-01  3008   0.103E+00    0.709E+00
DAV:  17    -0.254749445821E+03   -0.14853E-01   -0.20001E-01  2704   0.922E-01    0.703E+00
DAV:  18    -0.254676099993E+03    0.73346E-01   -0.48539E-02  2584   0.806E-01    0.768E+00
DAV:  19    -0.254587544322E+03    0.88556E-01   -0.68314E-02  2488   0.119E+00    0.558E+00
DAV:  20    -0.254522594846E+03    0.64949E-01   -0.14856E-01  2608   0.993E-01    0.654E+00
DAV:  21    -0.254569917333E+03   -0.47322E-01   -0.12582E-01  2504   0.643E-01    0.589E+00
DAV:  22    -0.254627011529E+03   -0.57094E-01   -0.21715E-01  2504   0.813E-01    0.784E+00
DAV:  23    -0.254632131833E+03   -0.51203E-02   -0.24571E-01  2408   0.122E+00    0.660E+00
DAV:  24    -0.254685422019E+03   -0.53290E-01   -0.27721E-01  2680   0.961E-01    0.102E+01
DAV:  25    -0.254678960057E+03    0.64620E-02   -0.16615E-01  2369   0.942E-01    0.974E+00
DAV:  26    -0.254664316121E+03    0.14644E-01   -0.17611E-01  2350   0.850E-01    0.955E+00
DAV:  27    -0.254617777032E+03    0.46539E-01   -0.12705E-01  2321   0.777E-01    0.909E+00
DAV:  28    -0.254564642727E+03    0.53134E-01   -0.75442E-02  2230   0.745E-01    0.865E+00
DAV:  29    -0.254708951801E+03   -0.14431E+00   -0.48862E-01  2394   0.162E+00    0.658E+00
DAV:  30    -0.254715567245E+03   -0.66154E-02   -0.13981E-01  2531   0.116E+00    0.548E+00
DAV:  31    -0.254721238142E+03   -0.56709E-02   -0.44791E-02  2340   0.598E-01    0.589E+00
DAV:  32    -0.254706631133E+03    0.14607E-01   -0.24125E-02  2536   0.648E-01    0.579E+00
DAV:  33    -0.254647453973E+03    0.59177E-01   -0.15030E-01  2822   0.123E+00    0.418E+00
DAV:  34    -0.254672166005E+03   -0.24712E-01   -0.89817E-02  2662   0.872E-01    0.533E+00
DAV:  35    -0.254679072899E+03   -0.69069E-02   -0.10917E-02  2558   0.415E-01    0.568E+00
DAV:  36    -0.254721862686E+03   -0.42790E-01   -0.33420E-02  2525   0.446E-01    0.704E+00
DAV:  37    -0.254746275639E+03   -0.24413E-01   -0.34141E-02  2640   0.353E-01    0.743E+00
DAV:  38    -0.254692888364E+03    0.53387E-01   -0.10387E-02  2376   0.347E-01    0.693E+00
DAV:  39    -0.254686436282E+03    0.64521E-02   -0.32106E-03  2112   0.161E-01    0.696E+00
DAV:  40    -0.254686850781E+03   -0.41450E-03   -0.17245E-03  2193   0.176E-01    0.704E+00
DAV:  41    -0.254710227642E+03   -0.23377E-01   -0.41224E-03  2468   0.208E-01    0.737E+00
DAV:  42    -0.254749542324E+03   -0.39315E-01   -0.10591E-02  2473   0.364E-01    0.758E+00
DAV:  43    -0.254792373660E+03   -0.42831E-01   -0.34602E-02  2526   0.662E-01    0.774E+00
DAV:  44    -0.254760720618E+03    0.31653E-01   -0.27137E-02  2840   0.648E-01    0.720E+00
DAV:  45    -0.254725827515E+03    0.34893E-01   -0.14479E-02  2614   0.521E-01    0.713E+00
DAV:  46    -0.254744732126E+03   -0.18905E-01   -0.54922E-02  2523   0.848E-01    0.735E+00
DAV:  47    -0.254746810985E+03   -0.20789E-02   -0.67676E-03  2744   0.341E-01    0.730E+00
DAV:  48    -0.254743877788E+03    0.29332E-02   -0.19837E-03  1844   0.184E-01    0.722E+00
DAV:  49    -0.254784942435E+03   -0.41065E-01   -0.71437E-03  2454   0.318E-01    0.726E+00
DAV:  50    -0.254814859945E+03   -0.29918E-01   -0.32633E-02  2554   0.710E-01    0.701E+00
DAV:  51    -0.254466134724E+03    0.34873E+00   -0.10718E+00  2687   0.345E+00    0.628E+00
DAV:  52    -0.254469275441E+03   -0.31407E-02   -0.16506E-01  2685   0.158E+00    0.611E+00
DAV:  53    -0.254515744908E+03   -0.46469E-01   -0.73985E-02  2795   0.987E-01    0.656E+00
DAV:  54    -0.254507468199E+03    0.82767E-02   -0.11350E-02  2616   0.426E-01    0.702E+00
DAV:  55    -0.254509208145E+03   -0.17399E-02   -0.19638E-02  2779   0.434E-01    0.763E+00
DAV:  56    -0.254449556023E+03    0.59652E-01   -0.86349E-02  2883   0.885E-01    0.781E+00
DAV:  57    -0.254455515023E+03   -0.59590E-02   -0.21512E-02  2601   0.684E-01    0.693E+00
DAV:  58    -0.254510965248E+03   -0.55450E-01   -0.57315E-02  2688   0.925E-01    0.492E+00
DAV:  59    -0.254646908310E+03   -0.13594E+00   -0.57513E-02  2689   0.135E+00    0.372E+00
DAV:  60    -0.254721814355E+03   -0.74906E-01   -0.59404E-02  2724   0.122E+00
   1 F= -.25472181E+03 E0= -.25471815E+03  d E =-.254722E+03  mag=     0.1872
       N       E                     dE             d eps       ncg     rms          rms(c)
DAV:   1    -0.254313665662E+03    0.33324E+00   -0.12386E+02  2056   0.269E+01    0.950E+00
DAV:   2    -0.268927620948E+03   -0.14614E+02   -0.32676E+01  2908   0.403E+01    0.346E+01
DAV:   3    -0.256456631227E+03    0.12471E+02   -0.99851E+00  2547   0.501E+01    0.192E+01
DAV:   4    -0.255738270235E+03    0.71836E+00   -0.92780E+00  2984   0.180E+01    0.135E+01
DAV:   5    -0.255365860535E+03    0.37241E+00   -0.18752E+00  2799   0.498E+00    0.394E+00
DAV:   6    -0.255411890498E+03   -0.46030E-01   -0.60485E-02  2761   0.858E-01    0.488E+00
DAV:   7    -0.255399929687E+03    0.11961E-01   -0.45351E-03  2561   0.334E-01    0.454E+00
DAV:   8    -0.255375051201E+03    0.24878E-01   -0.44622E-02  2742   0.908E-01    0.261E+00
DAV:   9    -0.255384218042E+03   -0.91668E-02   -0.35831E-02  2798   0.931E-01    0.149E+00
DAV:  10    -0.255408602409E+03   -0.24384E-01   -0.14945E-02  2732   0.560E-01    0.117E+00
DAV:  11    -0.255421313036E+03   -0.12711E-01   -0.10161E-02  2681   0.458E-01    0.645E-01
DAV:  12    -0.255430998002E+03   -0.96850E-02   -0.14084E-02  2798   0.472E-01    0.329E-01
DAV:  13    -0.255435352467E+03   -0.43545E-02   -0.30839E-03  2755   0.287E-01    0.257E-01
DAV:  14    -0.255436782930E+03   -0.14305E-02   -0.23334E-03  2423   0.239E-01    0.175E-01
DAV:  15    -0.255438464991E+03   -0.16821E-02   -0.12205E-03  2062   0.167E-01    0.175E-01
DAV:  16    -0.255438968598E+03   -0.50361E-03   -0.23152E-04  1723   0.844E-02    0.212E-01
DAV:  17    -0.255438290864E+03    0.67773E-03   -0.16658E-04  1628   0.702E-02    0.231E-01
DAV:  18    -0.255438614282E+03   -0.32342E-03   -0.79240E-05  1510   0.510E-02    0.211E-01
DAV:  19    -0.255438923922E+03   -0.30964E-03   -0.88010E-04  1900   0.146E-01    0.184E-01
DAV:  20    -0.255438494580E+03    0.42934E-03   -0.25320E-04  1606   0.908E-02    0.210E-01
DAV:  21    -0.255439552228E+03   -0.10576E-02   -0.48040E-04  1782   0.103E-01    0.203E-01
DAV:  22    -0.255440314522E+03   -0.76229E-03   -0.27163E-03  2513   0.253E-01    0.152E-01
DAV:  23    -0.255440648205E+03   -0.33368E-03   -0.17938E-03  2203   0.192E-01    0.182E-01
DAV:  24    -0.255441265881E+03   -0.61768E-03   -0.33220E-04  1739   0.885E-02    0.229E-01
DAV:  25    -0.255441351706E+03   -0.85825E-04   -0.64181E-05  1504   0.507E-02
   2 F= -.25544135E+03 E0= -.25544426E+03  d E =-.719537E+00  mag=     0.0303
       N       E                     dE             d eps       ncg     rms          rms(c)
DAV:   1    -0.251144154446E+03    0.42971E+01   -0.96924E+02  2168   0.845E+01    0.150E+01
DAV:   2    -0.283292920469E+03   -0.32149E+02   -0.78455E+01  2909   0.789E+01    0.555E+01
DAV:   3    -0.265443278102E+03    0.17850E+02   -0.22065E+01  2751   0.624E+01    0.312E+01
DAV:   4    -0.255568490519E+03    0.98748E+01   -0.25387E+01  3099   0.667E+01    0.989E+00
DAV:   5    -0.255586185310E+03   -0.17695E-01   -0.40269E+00  2392   0.701E+00    0.342E+00
DAV:   6    -0.255628908157E+03   -0.42723E-01   -0.27990E-01  2793   0.210E+00    0.370E+00
DAV:   7    -0.255614001108E+03    0.14907E-01   -0.30837E-01  2761   0.251E+00    0.317E+00
DAV:   8    -0.255635375045E+03   -0.21374E-01   -0.21340E-02  2728   0.732E-01    0.317E+00
DAV:   9    -0.255633461582E+03    0.19135E-02   -0.93852E-04  2416   0.158E-01    0.319E+00
DAV:  10    -0.255622379675E+03    0.11082E-01   -0.82699E-03  2715   0.500E-01    0.317E+00
DAV:  11    -0.255581175980E+03    0.41204E-01   -0.73308E-02  2604   0.123E+00    0.364E+00
DAV:  12    -0.255623794743E+03   -0.42619E-01   -0.42055E-02  2518   0.897E-01    0.334E+00
DAV:  13    -0.255633074206E+03   -0.92795E-02   -0.68601E-03  2832   0.368E-01    0.320E+00
DAV:  14    -0.255546499150E+03    0.86575E-01   -0.44821E-01  2646   0.327E+00    0.318E+00
DAV:  15    -0.254435118858E+03    0.11114E+01   -0.11457E+00  2678   0.565E+00    0.556E+00
DAV:  16    -0.253243417619E+03    0.11917E+01   -0.40773E-01  2782   0.312E+00    0.548E+00
DAV:  17    -0.253313324200E+03   -0.69907E-01   -0.27806E-02  2593   0.894E-01    0.530E+00
DAV:  18    -0.255379683230E+03   -0.20664E+01   -0.68930E-01  2549   0.436E+00    0.313E+00
DAV:  19    -0.255326980579E+03    0.52703E-01   -0.19598E-01  2716   0.234E+00    0.374E+00
DAV:  20    -0.255523213706E+03   -0.19623E+00   -0.25462E-01  2699   0.308E+00    0.162E+00
DAV:  21    -0.255641943978E+03   -0.11873E+00   -0.10607E-01  2630   0.180E+00    0.160E+00
DAV:  22    -0.255647147571E+03   -0.52036E-02   -0.21729E-02  2880   0.782E-01    0.140E+00
DAV:  23    -0.255628457915E+03    0.18690E-01   -0.22456E-02  2921   0.941E-01    0.952E-01
DAV:  24    -0.255648376679E+03   -0.19919E-01   -0.18458E-02  2767   0.834E-01    0.976E-01
DAV:  25    -0.255646318195E+03    0.20585E-02   -0.72738E-03  2807   0.478E-01    0.507E-01
DAV:  26    -0.255652075093E+03   -0.57569E-02   -0.21407E-03  2737   0.227E-01    0.407E-01
DAV:  27    -0.255654271527E+03   -0.21964E-02   -0.13147E-03  2540   0.217E-01    0.234E-01
DAV:  28    -0.255659350257E+03   -0.50787E-02   -0.32159E-03  2805   0.273E-01    0.156E-01
DAV:  29    -0.255660921663E+03   -0.15714E-02   -0.20473E-03  2760   0.240E-01    0.176E-01
DAV:  30    -0.255661432077E+03   -0.51041E-03   -0.95430E-04  2256   0.184E-01    0.154E-01
DAV:  31    -0.255661783306E+03   -0.35123E-03   -0.10790E-03  2624   0.214E-01    0.265E-01
DAV:  32    -0.255662002781E+03   -0.21947E-03   -0.27259E-04  1728   0.936E-02    0.196E-01
DAV:  33    -0.255662008534E+03   -0.57530E-05   -0.19292E-04  1776   0.775E-02
   3 F= -.25566201E+03 E0= -.25566285E+03  d E =-.940194E+00  mag=     0.0066
       N       E                     dE             d eps       ncg     rms          rms(c)
DAV:   1    -0.255512474919E+03    0.14953E+00   -0.19339E+02  2093   0.380E+01    0.585E+00
DAV:   2    -0.266313939254E+03   -0.10801E+02   -0.23959E+01  3136   0.292E+01    0.410E+01
DAV:   3    -0.255805403058E+03    0.10509E+02   -0.69963E+00  2992   0.117E+01    0.374E+00
DAV:   4    -0.255827509290E+03   -0.22106E-01   -0.66278E-01  2768   0.281E+00    0.222E+00
DAV:   5    -0.255856779320E+03   -0.29270E-01   -0.11353E-01  2888   0.138E+00    0.137E+00
DAV:   6    -0.255873585307E+03   -0.16806E-01   -0.51407E-02  2825   0.140E+00    0.127E+00
DAV:   7    -0.255885378870E+03   -0.11794E-01   -0.96650E-03  2800   0.506E-01    0.161E+00
DAV:   8    -0.255867215090E+03    0.18164E-01   -0.27468E-02  2788   0.921E-01    0.109E+00
DAV:   9    -0.255880348010E+03   -0.13133E-01   -0.58483E-03  2720   0.442E-01    0.814E-01
DAV:  10    -0.255883685726E+03   -0.33377E-02   -0.65797E-03  2904   0.483E-01    0.510E-01
DAV:  11    -0.255885267001E+03   -0.15813E-02   -0.36922E-03  2728   0.336E-01    0.301E-01
DAV:  12    -0.255885648743E+03   -0.38174E-03   -0.31712E-03  2712   0.309E-01    0.155E-01
DAV:  13    -0.255886561263E+03   -0.91252E-03   -0.60489E-04  2080   0.134E-01    0.800E-02
DAV:  14    -0.255886962122E+03   -0.40086E-03   -0.13277E-04  1560   0.641E-02    0.476E-02
DAV:  15    -0.255887130220E+03   -0.16810E-03   -0.72395E-05  1600   0.383E-02    0.339E-02
DAV:  16    -0.255887231625E+03   -0.10140E-03   -0.54197E-05  1560   0.274E-02    0.265E-02
DAV:  17    -0.255887271681E+03   -0.40056E-04   -0.27311E-05  1592   0.175E-02
   4 F= -.25588727E+03 E0= -.25588923E+03  d E =-.116546E+01  mag=     0.0089
       N       E                     dE             d eps       ncg     rms          rms(c)
DAV:   1    -0.256116924303E+03   -0.22969E+00   -0.23009E+01  2040   0.114E+01    0.263E+00
DAV:   2    -0.257861816245E+03   -0.17449E+01   -0.26944E+00  3072   0.143E+01    0.194E+01
DAV:   3    -0.256113295189E+03    0.17485E+01   -0.24454E+00  2912   0.170E+01    0.168E+00
DAV:   4    -0.256152299419E+03   -0.39004E-01   -0.16047E-01  2736   0.161E+00    0.854E-01
DAV:   5    -0.256162157480E+03   -0.98581E-02   -0.24508E-02  3008   0.763E-01    0.875E-01
DAV:   6    -0.256162069353E+03    0.88128E-04   -0.65805E-03  2816   0.656E-01    0.335E-01
DAV:   7    -0.256164055093E+03   -0.19857E-02   -0.15378E-03  2624   0.186E-01    0.234E-01
DAV:   8    -0.256164097411E+03   -0.42317E-04   -0.18815E-04  1832   0.804E-02
   5 F= -.25616410E+03 E0= -.25616505E+03  d E =-.276826E+00  mag=     0.0097
       N       E                     dE             d eps       ncg     rms          rms(c)
DAV:   1    -0.255941732071E+03    0.22232E+00   -0.24468E+02  2056   0.426E+01    0.856E+00
DAV:   2    -0.268321480039E+03   -0.12380E+02   -0.23550E+01  2952   0.492E+01    0.354E+01
DAV:   3    -0.257966385891E+03    0.10355E+02   -0.11370E+01  2896   0.527E+01    0.201E+01
DAV:   4    -0.257299968535E+03    0.66642E+00   -0.11788E+01  3120   0.280E+01    0.121E+01
DAV:   5    -0.256900098958E+03    0.39987E+00   -0.69401E-01  2656   0.384E+00    0.897E+00
DAV:   6    -0.256672030219E+03    0.22807E+00   -0.17338E-01  2984   0.291E+00    0.496E+00
DAV:   7    -0.256604548063E+03    0.67482E-01   -0.12964E-01  2928   0.235E+00    0.152E+00
DAV:   8    -0.256605017568E+03   -0.46951E-03   -0.18102E-02  2800   0.555E-01    0.181E+00
DAV:   9    -0.256605102822E+03   -0.85254E-04   -0.13874E-03  2512   0.198E-01    0.189E+00
DAV:  10    -0.256592846963E+03    0.12256E-01   -0.16923E-02  2847   0.957E-01    0.139E+00
DAV:  11    -0.256594866933E+03   -0.20200E-02   -0.11142E-02  2905   0.647E-01    0.123E+00
DAV:  12    -0.256599452267E+03   -0.45853E-02   -0.37340E-03  2896   0.335E-01    0.959E-01
DAV:  13    -0.256601137057E+03   -0.16848E-02   -0.80351E-04  2112   0.162E-01    0.981E-01
DAV:  14    -0.256601914795E+03   -0.77774E-03   -0.15373E-03  2443   0.215E-01    0.814E-01
DAV:  15    -0.256603268281E+03   -0.13535E-02   -0.11464E-03  2536   0.168E-01    0.836E-01
DAV:  16    -0.256603808945E+03   -0.54066E-03   -0.28593E-03  2880   0.236E-01    0.789E-01
DAV:  17    -0.256603255448E+03    0.55350E-03   -0.10013E-02  2901   0.444E-01    0.377E-01
DAV:  18    -0.256603986057E+03   -0.73061E-03   -0.21453E-03  2717   0.288E-01    0.137E-01
DAV:  19    -0.256604421004E+03   -0.43495E-03   -0.31117E-04  1856   0.996E-02    0.181E-01
DAV:  20    -0.256604592882E+03   -0.17188E-03   -0.73333E-05  1651   0.518E-02    0.215E-01
DAV:  21    -0.256604922166E+03   -0.32928E-03   -0.41382E-04  1859   0.121E-01    0.728E-02
DAV:  22    -0.256605258838E+03   -0.33667E-03   -0.34386E-04  2016   0.889E-02    0.272E-01
DAV:  23    -0.256605431841E+03   -0.17300E-03   -0.22763E-04  1608   0.823E-02    0.443E-01
DAV:  24    -0.256605233107E+03    0.19873E-03   -0.95203E-05  1592   0.582E-02    0.563E-01
DAV:  25    -0.256605114572E+03    0.11854E-03   -0.65423E-05  1468   0.469E-02    0.657E-01
DAV:  26    -0.256604758096E+03    0.35648E-03   -0.42206E-05  1480   0.433E-02    0.712E-01
DAV:  27    -0.256604435416E+03    0.32268E-03   -0.19503E-05  1406   0.265E-02    0.734E-01
DAV:  28    -0.256604306535E+03    0.12888E-03   -0.66955E-06  1208   0.147E-02    0.756E-01
DAV:  29    -0.256604207591E+03    0.98944E-04   -0.29144E-06  1238   0.861E-03
   6 F= -.25660421E+03 E0= -.25660066E+03  d E =-.716936E+00  mag=     0.0563
       N       E                     dE             d eps       ncg     rms          rms(c)
DAV:   1    -0.256604116770E+03    0.18976E-03   -0.98230E+00  2050   0.810E+00    0.173E+00
DAV:   2    -0.256981763435E+03   -0.37765E+00   -0.99077E-01  3016   0.747E+00    0.931E+00
DAV:   3    -0.256644311026E+03    0.33745E+00   -0.12116E+00  2992   0.790E+00    0.260E+00
DAV:   4    -0.256640779485E+03    0.35315E-02   -0.34458E-02  2838   0.872E-01    0.316E+00
DAV:   5    -0.256625134258E+03    0.15645E-01   -0.92269E-03  2750   0.516E-01    0.315E+00
DAV:   6    -0.256629392475E+03   -0.42582E-02   -0.65114E-03  2904   0.458E-01    0.315E+00
DAV:   7    -0.256586438116E+03    0.42954E-01   -0.99522E-02  2810   0.179E+00    0.340E+00
DAV:   8    -0.256597643861E+03   -0.11206E-01   -0.24368E-02  3032   0.790E-01    0.347E+00
DAV:   9    -0.256602827906E+03   -0.51840E-02   -0.34778E-03  2864   0.242E-01    0.351E+00
DAV:  10    -0.256612873803E+03   -0.10046E-01   -0.47743E-03  2592   0.286E-01    0.336E+00
DAV:  11    -0.256621045519E+03   -0.81717E-02   -0.66779E-03  2816   0.312E-01    0.314E+00
DAV:  12    -0.256639048316E+03   -0.18003E-01   -0.36032E-02  2770   0.809E-01    0.266E+00
DAV:  13    -0.256649898871E+03   -0.10851E-01   -0.21482E-02  2995   0.666E-01    0.243E+00
DAV:  14    -0.256655331082E+03   -0.54322E-02   -0.19068E-03  2368   0.274E-01    0.243E+00
DAV:  15    -0.256656060460E+03   -0.72938E-03   -0.27306E-02  2787   0.954E-01    0.248E+00
DAV:  16    -0.256663796834E+03   -0.77364E-02   -0.96463E-03  2726   0.633E-01    0.235E+00
DAV:  17    -0.256680326086E+03   -0.16529E-01   -0.23745E-02  2800   0.829E-01    0.201E+00
DAV:  18    -0.256678564827E+03    0.17613E-02   -0.13710E-02  2776   0.648E-01    0.207E+00
DAV:  19    -0.256687918463E+03   -0.93536E-02   -0.19577E-03  2446   0.219E-01    0.198E+00
DAV:  20    -0.256701696898E+03   -0.13778E-01   -0.68583E-03  2766   0.629E-01    0.202E+00
DAV:  21    -0.256757430506E+03   -0.55734E-01   -0.13741E-01  2731   0.216E+00    0.254E+00
DAV:  22    -0.256749991608E+03    0.74389E-02   -0.25101E-02  2459   0.103E+00    0.233E+00
DAV:  23    -0.256745046580E+03    0.49450E-02   -0.20463E-03  2712   0.315E-01    0.229E+00
DAV:  24    -0.256746766154E+03   -0.17196E-02   -0.65139E-03  2720   0.469E-01    0.244E+00
DAV:  25    -0.256774291556E+03   -0.27525E-01   -0.26727E-02  2641   0.973E-01    0.300E+00
DAV:  26    -0.256749460686E+03    0.24831E-01   -0.27345E-02  2624   0.967E-01    0.260E+00
DAV:  27    -0.256714607404E+03    0.34853E-01   -0.56531E-02  2882   0.162E+00    0.252E+00
DAV:  28    -0.256673863328E+03    0.40744E-01   -0.44871E-02  3000   0.136E+00    0.257E+00
DAV:  29    -0.256671175354E+03    0.26880E-02   -0.52850E-03  2864   0.359E-01    0.259E+00
DAV:  30    -0.256676294482E+03   -0.51191E-02   -0.45944E-04  1851   0.149E-01    0.262E+00
DAV:  31    -0.256676709202E+03   -0.41472E-03   -0.19245E-04  1753   0.796E-02    0.257E+00
DAV:  32    -0.256684561221E+03   -0.78520E-02   -0.35584E-03  2770   0.327E-01    0.238E+00
DAV:  33    -0.256698244816E+03   -0.13684E-01   -0.63312E-03  2944   0.490E-01    0.232E+00
DAV:  34    -0.256690179870E+03    0.80649E-02   -0.23508E-03  2502   0.333E-01    0.234E+00
DAV:  35    -0.256739670553E+03   -0.49491E-01   -0.73551E-02  2747   0.167E+00    0.215E+00
DAV:  36    -0.256793614510E+03   -0.53944E-01   -0.10343E-01  2777   0.176E+00    0.278E+00
DAV:  37    -0.256800464345E+03   -0.68498E-02   -0.13568E-02  2662   0.567E-01    0.305E+00
DAV:  38    -0.256797867087E+03    0.25973E-02   -0.74755E-04  2408   0.149E-01    0.314E+00
DAV:  39    -0.256795823311E+03    0.20438E-02   -0.17538E-04  1600   0.663E-02    0.320E+00
DAV:  40    -0.256798629338E+03   -0.28060E-02   -0.17310E-04  1516   0.508E-02    0.321E+00
DAV:  41    -0.256801313980E+03   -0.26846E-02   -0.24313E-04  1682   0.512E-02    0.323E+00
DAV:  42    -0.256779553116E+03    0.21761E-01   -0.36258E-02  2493   0.115E+00    0.239E+00
DAV:  43    -0.256785958891E+03   -0.64058E-02   -0.27866E-03  2490   0.268E-01    0.239E+00
DAV:  44    -0.256783540930E+03    0.24180E-02   -0.24306E-03  2629   0.331E-01    0.226E+00
DAV:  45    -0.256770950674E+03    0.12590E-01   -0.34614E-03  2904   0.370E-01    0.215E+00
DAV:  46    -0.256756153912E+03    0.14797E-01   -0.57855E-03  2854   0.463E-01    0.207E+00
DAV:  47    -0.256715969890E+03    0.40184E-01   -0.12190E+00  2467   0.483E+00    0.570E+00
DAV:  48    -0.256723536232E+03   -0.75663E-02   -0.39886E-02  2499   0.115E+00    0.561E+00
DAV:  49    -0.256732018771E+03   -0.84825E-02   -0.58020E-03  2544   0.455E-01    0.548E+00
DAV:  50    -0.256680251470E+03    0.51767E-01   -0.86093E-01  2557   0.443E+00    0.273E+00
DAV:  51    -0.256709723648E+03   -0.29472E-01   -0.51231E-02  2714   0.116E+00    0.276E+00
DAV:  52    -0.256687121639E+03    0.22602E-01   -0.96821E-03  2745   0.517E-01    0.308E+00
DAV:  53    -0.256717402813E+03   -0.30281E-01   -0.73650E-02  2503   0.142E+00    0.294E+00
DAV:  54    -0.256727619163E+03   -0.10216E-01   -0.49663E-03  2518   0.356E-01    0.295E+00
DAV:  55    -0.256721563732E+03    0.60554E-02   -0.14387E-03  2018   0.150E-01    0.294E+00
DAV:  56    -0.256722406120E+03   -0.84239E-03   -0.10890E-04  1595   0.460E-02    0.295E+00
DAV:  57    -0.256727004104E+03   -0.45980E-02   -0.42900E-02  2538   0.105E+00    0.231E+00
DAV:  58    -0.256647901368E+03    0.79103E-01   -0.17054E-01  2681   0.281E+00    0.231E+00
DAV:  59    -0.256640924377E+03    0.69770E-02   -0.39265E-02  2936   0.113E+00    0.225E+00
DAV:  60    -0.256649277248E+03   -0.83529E-02   -0.59143E-03  2759   0.373E-01
   7 F= -.25664928E+03 E0= -.25665376E+03  d E =-.762006E+00  mag=     0.0624
       N       E                     dE             d eps       ncg     rms          rms(c)
DAV:   1    -0.256678157182E+03   -0.37233E-01   -0.53744E+00  2375   0.840E+00    0.401E+00
DAV:   2    -0.258804600774E+03   -0.21264E+01   -0.43628E+00  2907   0.188E+01    0.200E+01
DAV:   3    -0.256772820142E+03    0.20318E+01   -0.47409E+00  2892   0.215E+01    0.217E+00
DAV:   4    -0.256837251779E+03   -0.64432E-01   -0.34481E-01  2837   0.228E+00    0.116E+00
DAV:   5    -0.256856352774E+03   -0.19101E-01   -0.19828E-02  2883   0.854E-01    0.788E-01
DAV:   6    -0.256864493636E+03   -0.81409E-02   -0.17943E-02  2965   0.730E-01    0.549E-01
DAV:   7    -0.256866861372E+03   -0.23677E-02   -0.68743E-03  2913   0.410E-01    0.342E-01
DAV:   8    -0.256871063397E+03   -0.42020E-02   -0.23339E-03  2801   0.213E-01    0.269E-01
DAV:   9    -0.256878444759E+03   -0.73814E-02   -0.30010E-03  2631   0.251E-01    0.368E-01
DAV:  10    -0.256869979538E+03    0.84652E-02   -0.30022E-03  2566   0.339E-01    0.289E-01
DAV:  11    -0.256868071751E+03    0.19078E-02   -0.62176E-04  2128   0.129E-01    0.187E-01
DAV:  12    -0.256876650590E+03   -0.85788E-02   -0.13082E-03  2242   0.156E-01    0.902E-02
DAV:  13    -0.256880005792E+03   -0.33552E-02   -0.40869E-04  2032   0.780E-02    0.434E-02
DAV:  14    -0.256881287837E+03   -0.12820E-02   -0.18255E-04  1960   0.629E-02    0.251E-02
DAV:  15    -0.256881636367E+03   -0.34853E-03   -0.75653E-05  1712   0.371E-02    0.383E-02
DAV:  16    -0.256881885941E+03   -0.24957E-03   -0.53035E-05  1736   0.330E-02    0.334E-02
DAV:  17    -0.256881974280E+03   -0.88339E-04   -0.24093E-05  1600   0.208E-02
   8 F= -.25688197E+03 E0= -.25688048E+03  d E =-.232697E+00  mag=    -0.1900
       N       E                     dE             d eps       ncg     rms          rms(c)
DAV:   1    -0.256922637325E+03   -0.40751E-01   -0.48866E-01  2095   0.223E+00    0.381E-01
DAV:   2    -0.256956772855E+03   -0.34136E-01   -0.10803E-01  2976   0.281E+00    0.237E+00
DAV:   3    -0.256921907334E+03    0.34866E-01   -0.67978E-02  2905   0.236E+00    0.153E-01
DAV:   4    -0.256921902226E+03    0.51077E-05   -0.24934E-03  2760   0.213E-01    0.115E-01
DAV:   5    -0.256921749421E+03    0.15281E-03   -0.31151E-04  1755   0.854E-02    0.842E-02
DAV:   6    -0.256921589261E+03    0.16016E-03   -0.18011E-04  1822   0.716E-02    0.131E-01
DAV:   7    -0.256921638437E+03   -0.49176E-04   -0.21588E-04  1715   0.958E-02
   9 F= -.25692164E+03 E0= -.25691995E+03  d E =-.272361E+00  mag=    -0.1964
       N       E                     dE             d eps       ncg     rms          rms(c)
DAV:   1    -0.256976344145E+03   -0.54755E-01   -0.19483E+00  2126   0.446E+00    0.789E-01
DAV:   2    -0.257113420753E+03   -0.13708E+00   -0.41250E-01  2924   0.585E+00    0.437E+00
DAV:   3    -0.256973422984E+03    0.14000E+00   -0.25462E-01  2884   0.508E+00    0.343E-01
DAV:   4    -0.256973547850E+03   -0.12487E-03   -0.10888E-02  2782   0.400E-01    0.202E-01
DAV:   5    -0.256973160149E+03    0.38770E-03   -0.16630E-03  2814   0.180E-01    0.180E-01
DAV:   6    -0.256972935745E+03    0.22440E-03   -0.58838E-04  2168   0.118E-01    0.235E-01
DAV:   7    -0.256972910571E+03    0.25173E-04   -0.64585E-04  1926   0.149E-01
  10 F= -.25697291E+03 E0= -.25697127E+03  d E =-.323633E+00  mag=    -0.1639
       N       E                     dE             d eps       ncg     rms          rms(c)
DAV:   1    -0.256971726875E+03    0.12089E-02   -0.78140E+00  2080   0.893E+00    0.163E+00
DAV:   2    -0.257495634850E+03   -0.52391E+00   -0.15557E+00  2944   0.121E+01    0.799E+00
DAV:   3    -0.256959067529E+03    0.53657E+00   -0.91457E-01  2894   0.111E+01    0.991E-01
DAV:   4    -0.256959600542E+03   -0.53301E-03   -0.67276E-02  2984   0.104E+00    0.435E-01
DAV:   5    -0.256957174748E+03    0.24258E-02   -0.82151E-03  2784   0.461E-01    0.468E-01
DAV:   6    -0.256957109366E+03    0.65382E-04   -0.13476E-03  2680   0.177E-01    0.565E-01
DAV:   7    -0.256955480922E+03    0.16284E-02   -0.28677E-03  2579   0.304E-01    0.578E-01
DAV:   8    -0.256956933842E+03   -0.14529E-02   -0.40465E-03  2831   0.322E-01    0.292E-01
DAV:   9    -0.256958785122E+03   -0.18513E-02   -0.11502E-03  2496   0.168E-01    0.140E-01
DAV:  10    -0.256960146741E+03   -0.13616E-02   -0.27496E-04  1904   0.107E-01    0.452E-02
DAV:  11    -0.256960524964E+03   -0.37822E-03   -0.15925E-04  1734   0.655E-02    0.342E-02
DAV:  12    -0.256960714951E+03   -0.18999E-03   -0.37623E-05  1624   0.343E-02    0.297E-02
DAV:  13    -0.256960799195E+03   -0.84244E-04   -0.17005E-05  1528   0.190E-02
  11 F= -.25696080E+03 E0= -.25695869E+03  d E =-.311522E+00  mag=    -0.1309
       N       E                     dE             d eps       ncg     rms          rms(c)
DAV:   1    -0.256991422194E+03   -0.30707E-01   -0.26636E+00  2040   0.524E+00    0.838E-01
DAV:   2    -0.257200216295E+03   -0.20879E+00   -0.66342E-01  2968   0.625E+00    0.742E+00
DAV:   3    -0.256988385903E+03    0.21183E+00   -0.44176E-01  2876   0.450E+00    0.488E-01
DAV:   4    -0.256987880409E+03    0.50549E-03   -0.12876E-02  2775   0.544E-01    0.402E-01
DAV:   5    -0.256987035463E+03    0.84495E-03   -0.14845E-03  2630   0.199E-01    0.401E-01
DAV:   6    -0.256985025262E+03    0.20102E-02   -0.25808E-03  2640   0.253E-01    0.537E-01
DAV:   7    -0.256984554066E+03    0.47120E-03   -0.48828E-03  2620   0.381E-01    0.370E-01
DAV:   8    -0.256982843488E+03    0.17106E-02   -0.14743E-02  2885   0.603E-01    0.363E-01
DAV:   9    -0.256987115402E+03   -0.42719E-02   -0.39297E-03  2596   0.371E-01    0.267E-01
DAV:  10    -0.256985996522E+03    0.11189E-02   -0.95305E-04  2220   0.157E-01    0.136E-01
DAV:  11    -0.256986051037E+03   -0.54515E-04   -0.39717E-04  2032   0.958E-02
  12 F= -.25698605E+03 E0= -.25698411E+03  d E =-.336774E+00  mag=    -0.1470
       N       E                     dE             d eps       ncg     rms          rms(c)
DAV:   1    -0.257031646171E+03   -0.45650E-01   -0.17011E+00  2040   0.415E+00    0.591E-01
DAV:   2    -0.257088338940E+03   -0.56693E-01   -0.17330E-01  2912   0.374E+00    0.292E+00
DAV:   3    -0.257032483109E+03    0.55856E-01   -0.11848E-01  2884   0.334E+00    0.323E-01
DAV:   4    -0.257032357221E+03    0.12589E-03   -0.52847E-03  2662   0.346E-01    0.226E-01
DAV:   5    -0.257031907601E+03    0.44962E-03   -0.13545E-03  2564   0.149E-01    0.300E-01
DAV:   6    -0.257032071311E+03   -0.16371E-03   -0.51250E-04  1873   0.128E-01    0.272E-01
DAV:   7    -0.257031027607E+03    0.10437E-02   -0.23884E-03  2493   0.244E-01    0.950E-02
DAV:   8    -0.257031425783E+03   -0.39818E-03   -0.78535E-04  2280   0.136E-01    0.105E-01
DAV:   9    -0.257032438280E+03   -0.10125E-02   -0.52935E-04  1972   0.134E-01    0.893E-02
DAV:  10    -0.257032027501E+03    0.41078E-03   -0.38052E-04  1968   0.931E-02    0.221E-02
DAV:  11    -0.257032380266E+03   -0.35276E-03   -0.87153E-05  1623   0.574E-02    0.304E-02
DAV:  12    -0.257032472216E+03   -0.91951E-04   -0.20350E-05  1624   0.190E-02
  13 F= -.25703247E+03 E0= -.25703023E+03  d E =-.464212E-01  mag=    -0.1303
       N       E                     dE             d eps       ncg     rms          rms(c)
DAV:   1    -0.257054502769E+03   -0.22123E-01   -0.13729E+00  2050   0.373E+00    0.530E-01
DAV:   2    -0.257100797450E+03   -0.46295E-01   -0.14112E-01  2880   0.339E+00    0.267E+00
DAV:   3    -0.257054784558E+03    0.46013E-01   -0.97314E-02  2858   0.301E+00    0.270E-01
DAV:   4    -0.257054697183E+03    0.87375E-04   -0.43957E-03  2646   0.314E-01    0.145E-01
DAV:   5    -0.257054556204E+03    0.14098E-03   -0.74115E-04  2576   0.116E-01    0.521E-02
DAV:   6    -0.257054533208E+03    0.22996E-04   -0.12109E-04  1694   0.630E-02
  14 F= -.25705453E+03 E0= -.25705200E+03  d E =-.684822E-01  mag=    -0.1195
       N       E                     dE             d eps       ncg     rms          rms(c)
DAV:   1    -0.257045310025E+03    0.92462E-02   -0.54890E+00  2040   0.746E+00    0.111E+00
DAV:   2    -0.257236868061E+03   -0.19156E+00   -0.58333E-01  2920   0.722E+00    0.509E+00
DAV:   3    -0.257045397523E+03    0.19147E+00   -0.43057E-01  2934   0.658E+00    0.424E-01
DAV:   4    -0.257044860738E+03    0.53678E-03   -0.18417E-02  2574   0.529E-01    0.351E-01
DAV:   5    -0.257043315214E+03    0.15455E-02   -0.33916E-03  2768   0.255E-01    0.425E-01
DAV:   6    -0.257043706631E+03   -0.39142E-03   -0.30986E-04  1960   0.104E-01    0.444E-01
DAV:   7    -0.257039622561E+03    0.40841E-02   -0.31830E-03  2606   0.346E-01    0.621E-01
DAV:   8    -0.257041129169E+03   -0.15066E-02   -0.15829E-02  2801   0.789E-01    0.238E-01
DAV:   9    -0.257044175506E+03   -0.30463E-02   -0.72752E-03  2910   0.420E-01    0.262E-01
DAV:  10    -0.257046585898E+03   -0.24104E-02   -0.24600E-03  2481   0.341E-01    0.259E-01
DAV:  11    -0.257043966797E+03    0.26191E-02   -0.17679E-03  2646   0.229E-01    0.762E-02
DAV:  12    -0.257045840707E+03   -0.18739E-02   -0.30838E-04  2009   0.890E-02    0.195E-02
DAV:  13    -0.257046359159E+03   -0.51845E-03   -0.50885E-05  1608   0.336E-02    0.248E-02
DAV:  14    -0.257046619639E+03   -0.26048E-03   -0.25973E-05  1550   0.262E-02    0.171E-02
DAV:  15    -0.257046742245E+03   -0.12261E-03   -0.19594E-05  1600   0.135E-02    0.682E-03
DAV:  16    -0.257046837052E+03   -0.94807E-04   -0.15611E-05  1608   0.146E-02
  15 F= -.25704684E+03 E0= -.25704411E+03  d E =-.607860E-01  mag=    -0.1309
       N       E                     dE             d eps       ncg     rms          rms(c)
DAV:   1    -0.257059689808E+03   -0.12948E-01   -0.20601E+00  2040   0.458E+00    0.613E-01
DAV:   2    -0.257124037244E+03   -0.64347E-01   -0.19826E-01  2878   0.362E+00    0.377E+00
DAV:   3    -0.257061250023E+03    0.62787E-01   -0.16577E-01  2856   0.304E+00    0.488E-01
DAV:   4    -0.257059992138E+03    0.12579E-02   -0.60491E-03  2658   0.417E-01    0.220E-01
DAV:   5    -0.257059557752E+03    0.43439E-03   -0.91669E-04  2584   0.141E-01    0.223E-01
DAV:   6    -0.257058613139E+03    0.94461E-03   -0.87902E-04  2145   0.148E-01    0.312E-01
DAV:   7    -0.257058933615E+03   -0.32048E-03   -0.18142E-03  2321   0.241E-01    0.198E-01
DAV:   8    -0.257058470856E+03    0.46276E-03   -0.26918E-03  2616   0.262E-01    0.107E-01
DAV:   9    -0.257059825382E+03   -0.13545E-02   -0.63425E-04  1990   0.155E-01    0.861E-02
DAV:  10    -0.257059751496E+03    0.73885E-04   -0.90229E-05  1645   0.516E-02
  16 F= -.25705975E+03 E0= -.25705711E+03  d E =-.737005E-01  mag=    -0.1227
       N       E                     dE             d eps       ncg     rms          rms(c)
DAV:   1    -0.257093097462E+03   -0.33272E-01   -0.30959E+00  2050   0.518E+00    0.708E-01
DAV:   2    -0.257142477634E+03   -0.49380E-01   -0.15640E-01  2944   0.360E+00    0.274E+00
DAV:   3    -0.257096938522E+03    0.45539E-01   -0.13262E-01  2910   0.352E+00    0.619E-01
DAV:   4    -0.257096234661E+03    0.70386E-03   -0.84309E-03  2730   0.621E-01    0.247E-01
DAV:   5    -0.257095329462E+03    0.90520E-03   -0.15490E-03  2694   0.168E-01    0.180E-01
DAV:   6    -0.257094622307E+03    0.70716E-03   -0.53517E-04  2080   0.115E-01    0.275E-01
DAV:   7    -0.257095154416E+03   -0.53211E-03   -0.92501E-04  2137   0.191E-01    0.208E-01
DAV:   8    -0.257095621832E+03   -0.46742E-03   -0.14048E-03  2327   0.195E-01    0.530E-02
DAV:   9    -0.257095889927E+03   -0.26810E-03   -0.31993E-04  2104   0.935E-02    0.611E-02
DAV:  10    -0.257096388718E+03   -0.49879E-03   -0.16873E-04  1611   0.832E-02    0.563E-02
DAV:  11    -0.257096191799E+03    0.19692E-03   -0.11854E-04  1754   0.556E-02    0.140E-02
DAV:  12    -0.257096323028E+03   -0.13123E-03   -0.40155E-05  1619   0.314E-02    0.103E-02
DAV:  13    -0.257096388069E+03   -0.65041E-04   -0.10383E-05  1504   0.126E-02
  17 F= -.25709639E+03 E0= -.25709335E+03  d E =-.366366E-01  mag=    -0.1305
       N       E                     dE             d eps       ncg     rms          rms(c)
DAV:   1    -0.257111298362E+03   -0.14975E-01   -0.13389E+01  2040   0.109E+01    0.156E+00
DAV:   2    -0.257365218699E+03   -0.25392E+00   -0.83426E-01  2891   0.852E+00    0.584E+00
DAV:   3    -0.257125091631E+03    0.24013E+00   -0.68834E-01  2920   0.852E+00    0.110E+00
DAV:   4    -0.257121466492E+03    0.36251E-02   -0.35621E-02  2734   0.110E+00    0.545E-01
DAV:   5    -0.257113201777E+03    0.82647E-02   -0.95176E-03  2811   0.475E-01    0.662E-01
DAV:   6    -0.257115606693E+03   -0.24049E-02   -0.10319E-03  2401   0.188E-01    0.656E-01
DAV:   7    -0.257116950759E+03   -0.13441E-02   -0.20913E-04  1920   0.945E-02    0.620E-01
DAV:   8    -0.257118762434E+03   -0.18117E-02   -0.25281E-02  2909   0.103E+00    0.295E-01
DAV:   9    -0.257122649843E+03   -0.38874E-02   -0.80075E-03  2896   0.416E-01    0.247E-01
DAV:  10    -0.257126781237E+03   -0.41314E-02   -0.17971E-03  2628   0.315E-01    0.278E-01
DAV:  11    -0.257119651691E+03    0.71295E-02   -0.84159E-03  2867   0.573E-01    0.120E-01
DAV:  12    -0.257124437982E+03   -0.47863E-02   -0.12653E-03  2374   0.222E-01    0.334E-02
DAV:  13    -0.257125304434E+03   -0.86645E-03   -0.11598E-04  1704   0.476E-02    0.218E-02
DAV:  14    -0.257126253711E+03   -0.94928E-03   -0.11227E-04  1664   0.561E-02    0.105E-02
DAV:  15    -0.257126522792E+03   -0.26908E-03   -0.27533E-05  1608   0.273E-02    0.622E-03
DAV:  16    -0.257126719568E+03   -0.19678E-03   -0.21582E-05  1608   0.122E-02    0.446E-03
DAV:  17    -0.257126801085E+03   -0.81517E-04   -0.13590E-05  1608   0.756E-03
  18 F= -.25712680E+03 E0= -.25712312E+03  d E =-.670496E-01  mag=    -0.1921
       N       E                     dE             d eps       ncg     rms          rms(c)
DAV:   1    -0.257152805865E+03   -0.26086E-01   -0.19637E+00  2040   0.410E+00    0.629E-01
DAV:   2    -0.257204273481E+03   -0.51468E-01   -0.15792E-01  2912   0.369E+00    0.284E+00
DAV:   3    -0.257154093793E+03    0.50180E-01   -0.12564E-01  2878   0.353E+00    0.435E-01
DAV:   4    -0.257154085020E+03    0.87729E-05   -0.56963E-03  2687   0.393E-01    0.252E-01
DAV:   5    -0.257153087078E+03    0.99794E-03   -0.88262E-04  2534   0.153E-01    0.293E-01
DAV:   6    -0.257153602271E+03   -0.51519E-03   -0.96082E-04  2164   0.186E-01    0.220E-01
DAV:   7    -0.257152068917E+03    0.15334E-02   -0.23821E-03  2634   0.289E-01    0.102E-01
DAV:   8    -0.257152622965E+03   -0.55405E-03   -0.49295E-04  2160   0.106E-01    0.481E-02
DAV:   9    -0.257153897834E+03   -0.12749E-02   -0.15301E-04  1723   0.823E-02    0.392E-02
DAV:  10    -0.257154138045E+03   -0.24021E-03   -0.80829E-05  1715   0.543E-02    0.222E-02
DAV:  11    -0.257154142160E+03   -0.41148E-05   -0.77226E-05  1710   0.329E-02
  19 F= -.25715414E+03 E0= -.25715037E+03  d E =-.273411E-01  mag=    -0.2557
       N       E                     dE             d eps       ncg     rms          rms(c)
DAV:   1    -0.257214752552E+03   -0.60615E-01   -0.17770E+01  2040   0.125E+01    0.187E+00
DAV:   2    -0.257651233233E+03   -0.43648E+00   -0.13075E+00  2888   0.105E+01    0.838E+00
DAV:   3    -0.257237347029E+03    0.41389E+00   -0.99559E-01  2944   0.108E+01    0.131E+00
DAV:   4    -0.257237884748E+03   -0.53772E-03   -0.50182E-02  2601   0.995E-01    0.615E-01
DAV:   5    -0.257238567169E+03   -0.68242E-03   -0.84751E-03  2897   0.426E-01    0.560E-01
DAV:   6    -0.257235280085E+03    0.32871E-02   -0.34886E-03  2931   0.324E-01    0.569E-01
DAV:   7    -0.257238538615E+03   -0.32585E-02   -0.89426E-03  2673   0.613E-01    0.344E-01
DAV:   8    -0.257236932883E+03    0.16057E-02   -0.54461E-03  2919   0.466E-01    0.183E-01
DAV:   9    -0.257237250506E+03   -0.31762E-03   -0.17247E-03  2744   0.216E-01    0.761E-02
DAV:  10    -0.257239655956E+03   -0.24054E-02   -0.33182E-04  1989   0.108E-01    0.449E-02
DAV:  11    -0.257240546212E+03   -0.89026E-03   -0.12749E-04  1656   0.594E-02    0.336E-02
DAV:  12    -0.257240982747E+03   -0.43653E-03   -0.22529E-04  1926   0.826E-02    0.144E-02
DAV:  13    -0.257241135867E+03   -0.15312E-03   -0.87458E-05  1696   0.344E-02    0.178E-02
DAV:  14    -0.257241256832E+03   -0.12097E-03   -0.26543E-05  1536   0.215E-02    0.819E-03
DAV:  15    -0.257241341583E+03   -0.84750E-04   -0.17349E-05  1528   0.163E-02
  20 F= -.25724134E+03 E0= -.25724154E+03  d E =-.114540E+00  mag=    -0.4127
       N       E                     dE             d eps       ncg     rms          rms(c)
DAV:   1    -0.257292452204E+03   -0.51195E-01   -0.72179E+01  2040   0.260E+01    0.309E+00
DAV:   2    -0.258294707762E+03   -0.10023E+01   -0.35436E+00  2931   0.158E+01    0.117E+01
DAV:   3    -0.257471144414E+03    0.82356E+00   -0.21943E+00  3024   0.174E+01    0.294E+00
DAV:   4    -0.257435656729E+03    0.35488E-01   -0.14079E-01  2904   0.227E+00    0.798E-01
DAV:   5    -0.257446143667E+03   -0.10487E-01   -0.31209E-02  2712   0.696E-01    0.954E-01
DAV:   6    -0.257455382006E+03   -0.92383E-02   -0.13533E-02  2864   0.592E-01    0.910E-01
DAV:   7    -0.257440064955E+03    0.15317E-01   -0.16560E-02  2863   0.774E-01    0.488E-01
DAV:   8    -0.257439618789E+03    0.44617E-03   -0.50370E-03  2832   0.397E-01    0.144E-01
DAV:   9    -0.257450211552E+03   -0.10593E-01   -0.16299E-03  2486   0.179E-01    0.128E-01
DAV:  10    -0.257454260633E+03   -0.40491E-02   -0.35369E-04  1912   0.799E-02    0.555E-02
DAV:  11    -0.257456766314E+03   -0.25057E-02   -0.20711E-04  1896   0.485E-02    0.263E-02
DAV:  12    -0.257458422595E+03   -0.16563E-02   -0.14914E-04  1872   0.331E-02    0.175E-02
DAV:  13    -0.257459425891E+03   -0.10033E-02   -0.13438E-04  1824   0.325E-02    0.129E-02
DAV:  14    -0.257459633984E+03   -0.20809E-03   -0.30903E-05  1664   0.203E-02    0.971E-03
DAV:  15    -0.257459729438E+03   -0.95454E-04   -0.24096E-05  1656   0.131E-02
  21 F= -.25745973E+03 E0= -.25745961E+03  d E =-.332928E+00  mag=     0.0009
       N       E                     dE             d eps       ncg     rms          rms(c)
DAV:   1    -0.256827469064E+03    0.63216E+00   -0.31079E+02  2040   0.571E+01    0.458E+00
DAV:   2    -0.258755478663E+03   -0.19280E+01   -0.11841E+01  3024   0.244E+01    0.125E+01
DAV:   3    -0.257371759044E+03    0.13837E+01   -0.47677E+00  3024   0.266E+01    0.321E+00
DAV:   4    -0.257297257609E+03    0.74501E-01   -0.33192E-01  2960   0.332E+00    0.106E+00
DAV:   5    -0.257297056542E+03    0.20107E-03   -0.10985E-01  2848   0.146E+00    0.149E+00
DAV:   6    -0.257289116934E+03    0.79396E-02   -0.50852E-02  2992   0.173E+00    0.605E-01
DAV:   7    -0.257287024049E+03    0.20929E-02   -0.57245E-03  3008   0.446E-01    0.185E-01
DAV:   8    -0.257287124766E+03   -0.10072E-03   -0.11349E-03  2696   0.164E-01    0.142E-01
DAV:   9    -0.257287093993E+03    0.30773E-04   -0.12192E-04  1592   0.553E-02
  22 F= -.25728709E+03 E0= -.25728080E+03  d E =-.160293E+00  mag=    -0.0089
       N       E                     dE             d eps       ncg     rms          rms(c)
DAV:   1    -0.257436113184E+03   -0.14899E+00   -0.13337E+02  2040   0.356E+01    0.408E+00
DAV:   2    -0.260611612982E+03   -0.31755E+01   -0.13126E+01  3168   0.296E+01    0.201E+01
DAV:   3    -0.257614466689E+03    0.29971E+01   -0.52159E+00  3046   0.297E+01    0.472E+00
DAV:   4    -0.257546541776E+03    0.67925E-01   -0.92727E-01  3168   0.583E+00    0.174E+00
DAV:   5    -0.257532045289E+03    0.14496E-01   -0.14662E-01  2968   0.236E+00    0.125E+00
DAV:   6    -0.257523690376E+03    0.83549E-02   -0.12729E-02  2919   0.671E-01    0.522E-01
DAV:   7    -0.257521652659E+03    0.20377E-02   -0.24455E-03  2880   0.263E-01    0.422E-01
DAV:   8    -0.257523209688E+03   -0.15570E-02   -0.25312E-03  2694   0.350E-01    0.301E-01
DAV:   9    -0.257523444243E+03   -0.23455E-03   -0.15352E-03  2536   0.253E-01    0.135E-01
DAV:  10    -0.257523481917E+03   -0.37675E-04   -0.25326E-04  1864   0.881E-02
  23 F= -.25752348E+03 E0= -.25752152E+03  d E =-.396681E+00  mag=     0.0042
       N       E                     dE             d eps       ncg     rms          rms(c)
DAV:   1    -0.257544764178E+03   -0.21320E-01   -0.15288E+00  2065   0.362E+00    0.295E-01
DAV:   2    -0.257546986254E+03   -0.22221E-02   -0.24261E-02  2664   0.629E-01    0.589E-01
DAV:   3    -0.257545955212E+03    0.10310E-02   -0.86376E-03  3024   0.877E-01    0.355E-01
DAV:   4    -0.257545258303E+03    0.69691E-03   -0.17012E-03  2731   0.379E-01    0.952E-02
DAV:   5    -0.257545122364E+03    0.13594E-03   -0.28692E-04  1920   0.781E-02    0.726E-02
DAV:   6    -0.257545099430E+03    0.22934E-04   -0.43752E-05  1520   0.325E-02
  24 F= -.25754510E+03 E0= -.25754223E+03  d E =-.216175E-01  mag=     0.0075
       N       E                     dE             d eps       ncg     rms          rms(c)
DAV:   1    -0.257571925714E+03   -0.26803E-01   -0.13798E+01  2040   0.110E+01    0.922E-01
DAV:   2    -0.257593191963E+03   -0.21266E-01   -0.25801E-01  2392   0.181E+00    0.164E+00
DAV:   3    -0.257590045628E+03    0.31463E-02   -0.96718E-02  2992   0.289E+00    0.129E+00
DAV:   4    -0.257579256539E+03    0.10789E-01   -0.23304E-02  2984   0.137E+00    0.288E-01
DAV:   5    -0.257577117580E+03    0.21390E-02   -0.39057E-03  2976   0.295E-01    0.330E-01
DAV:   6    -0.257578192971E+03   -0.10754E-02   -0.50727E-04  1992   0.147E-01    0.300E-01
DAV:   7    -0.257579279708E+03   -0.10867E-02   -0.41768E-03  2798   0.434E-01    0.991E-02
DAV:   8    -0.257579559231E+03   -0.27952E-03   -0.47661E-04  2168   0.108E-01    0.591E-02
DAV:   9    -0.257580018140E+03   -0.45891E-03   -0.28945E-04  1971   0.121E-01    0.381E-02
DAV:  10    -0.257579805831E+03    0.21231E-03   -0.14443E-04  1760   0.728E-02    0.169E-02
DAV:  11    -0.257579957251E+03   -0.15142E-03   -0.40918E-05  1483   0.386E-02    0.140E-02
DAV:  12    -0.257580053500E+03   -0.96248E-04   -0.14308E-05  1488   0.115E-02
  25 F= -.25758005E+03 E0= -.25757473E+03  d E =-.565716E-01  mag=    -0.0039
       N       E                     dE             d eps       ncg     rms          rms(c)
DAV:   1    -0.257581690233E+03   -0.17330E-02   -0.95424E-01  2070   0.285E+00    0.264E-01
DAV:   2    -0.257587340342E+03   -0.56501E-02   -0.25329E-02  2992   0.929E-01    0.102E+00
DAV:   3    -0.257581904360E+03    0.54360E-02   -0.14282E-02  3024   0.110E+00    0.167E-01
DAV:   4    -0.257581713145E+03    0.19122E-03   -0.77225E-04  2542   0.149E-01    0.668E-02
DAV:   5    -0.257581591818E+03    0.12133E-03   -0.12851E-04  1752   0.640E-02    0.640E-02
DAV:   6    -0.257581506259E+03    0.85559E-04   -0.51631E-05  1592   0.388E-02
  26 F= -.25758151E+03 E0= -.25757583E+03  d E =-.580243E-01  mag=    -0.0063
       N       E                     dE             d eps       ncg     rms          rms(c)
DAV:   1    -0.257612695145E+03   -0.31103E-01   -0.12637E-01  2137   0.122E+00    0.135E-01
DAV:   2    -0.257614426277E+03   -0.17311E-02   -0.87267E-03  2870   0.757E-01    0.602E-01
DAV:   3    -0.257612488670E+03    0.19376E-02   -0.39912E-03  2968   0.595E-01    0.998E-02
DAV:   4    -0.257612069337E+03    0.41933E-03   -0.32238E-04  1831   0.874E-02    0.127E-01
DAV:   5    -0.257612085383E+03   -0.16047E-04   -0.56385E-05  1433   0.401E-02
  27 F= -.25761209E+03 E0= -.25760652E+03  d E =-.305791E-01  mag=    -0.0179
       N       E                     dE             d eps       ncg     rms          rms(c)
DAV:   1    -0.257684264694E+03   -0.72195E-01   -0.11344E+00  2080   0.363E+00    0.414E-01
DAV:   2    -0.257696838101E+03   -0.12573E-01   -0.73101E-02  2992   0.215E+00    0.170E+00
DAV:   3    -0.257681778814E+03    0.15059E-01   -0.31556E-02  3000   0.165E+00    0.320E-01
DAV:   4    -0.257679120709E+03    0.26581E-02   -0.32355E-03  2734   0.272E-01    0.379E-01
DAV:   5    -0.257678507542E+03    0.61317E-03   -0.43639E-04  2272   0.103E-01    0.429E-01
DAV:   6    -0.257679145630E+03   -0.63809E-03   -0.42953E-03  2884   0.392E-01    0.229E-01
DAV:   7    -0.257681655674E+03   -0.25100E-02   -0.13562E-03  2760   0.195E-01    0.845E-02
DAV:   8    -0.257681891281E+03   -0.23561E-03   -0.16531E-04  1888   0.739E-02    0.329E-02
DAV:   9    -0.257681977230E+03   -0.85949E-04   -0.57093E-05  1486   0.379E-02
  28 F= -.25768198E+03 E0= -.25767650E+03  d E =-.100471E+00  mag=     0.0002
       N       E                     dE             d eps       ncg     rms          rms(c)
DAV:   1    -0.257725262903E+03   -0.43372E-01   -0.45516E+00  2040   0.728E+00    0.767E-01
DAV:   2    -0.257786688989E+03   -0.61426E-01   -0.30865E-01  3008   0.450E+00    0.355E+00
DAV:   3    -0.257720480416E+03    0.66209E-01   -0.14257E-01  3024   0.346E+00    0.449E-01
DAV:   4    -0.257716579485E+03    0.39009E-02   -0.11973E-02  2680   0.441E-01    0.202E-01
DAV:   5    -0.257716229817E+03    0.34967E-03   -0.29232E-03  2488   0.167E-01    0.868E-02
DAV:   6    -0.257716175890E+03    0.53927E-04   -0.25765E-04  1784   0.920E-02
  29 F= -.25771618E+03 E0= -.25771091E+03  d E =-.134670E+00  mag=    -0.0078
       N       E                     dE             d eps       ncg     rms          rms(c)
DAV:   1    -0.257721315455E+03   -0.50856E-02   -0.30064E-01  2070   0.187E+00    0.203E-01
DAV:   2    -0.257725480236E+03   -0.41648E-02   -0.21179E-02  2992   0.120E+00    0.898E-01
DAV:   3    -0.257720756586E+03    0.47237E-02   -0.99610E-03  3024   0.990E-01    0.135E-01
DAV:   4    -0.257720160463E+03    0.59612E-03   -0.80540E-04  2424   0.124E-01    0.139E-01
DAV:   5    -0.257719665706E+03    0.49476E-03   -0.19109E-04  1728   0.846E-02    0.183E-01
DAV:   6    -0.257720465348E+03   -0.79964E-03   -0.69451E-04  2040   0.195E-01    0.101E-01
DAV:   7    -0.257720693024E+03   -0.22768E-03   -0.38232E-04  2008   0.111E-01    0.222E-02
DAV:   8    -0.257720800908E+03   -0.10788E-03   -0.81045E-05  1574   0.483E-02    0.249E-02
DAV:   9    -0.257720861191E+03   -0.60284E-04   -0.21864E-05  1462   0.254E-02
  30 F= -.25772086E+03 E0= -.25771555E+03  d E =-.139355E+00  mag=     0.0010
       N       E                     dE             d eps       ncg     rms          rms(c)
DAV:   1    -0.257744032777E+03   -0.23232E-01   -0.24888E-01  2050   0.171E+00    0.135E-01
DAV:   2    -0.257744675490E+03   -0.64271E-03   -0.70841E-03  2896   0.539E-01    0.345E-01
DAV:   3    -0.257744153221E+03    0.52227E-03   -0.30565E-03  3000   0.518E-01    0.163E-01
DAV:   4    -0.257743931951E+03    0.22127E-03   -0.60846E-04  2512   0.180E-01    0.281E-02
DAV:   5    -0.257743925661E+03    0.62906E-05   -0.97769E-05  1422   0.380E-02
  31 F= -.25774393E+03 E0= -.25773858E+03  d E =-.230645E-01  mag=    -0.0014
       N       E                     dE             d eps       ncg     rms          rms(c)
DAV:   1    -0.257791366024E+03   -0.47434E-01   -0.22356E+00  2040   0.514E+00    0.407E-01
DAV:   2    -0.257796556107E+03   -0.51901E-02   -0.62379E-02  2896   0.156E+00    0.101E+00
DAV:   3    -0.257792398057E+03    0.41581E-02   -0.27323E-02  3024   0.152E+00    0.505E-01
DAV:   4    -0.257790126363E+03    0.22717E-02   -0.57834E-03  3024   0.552E-01    0.919E-02
DAV:   5    -0.257789875956E+03    0.25041E-03   -0.10079E-03  2632   0.124E-01    0.935E-02
DAV:   6    -0.257789670849E+03    0.20511E-03   -0.11300E-04  1696   0.582E-02    0.120E-01
DAV:   7    -0.257790054692E+03   -0.38384E-03   -0.29824E-04  1766   0.129E-01    0.573E-02
DAV:   8    -0.257790178200E+03   -0.12351E-03   -0.11600E-04  1750   0.574E-02    0.181E-02
DAV:   9    -0.257790202891E+03   -0.24691E-04   -0.50787E-05  1544   0.320E-02
  32 F= -.25779020E+03 E0= -.25778481E+03  d E =-.693417E-01  mag=     0.0032
       N       E                     dE             d eps       ncg     rms          rms(c)
DAV:   1    -0.257785715327E+03    0.44629E-02   -0.89291E+00  2040   0.103E+01    0.809E-01
DAV:   2    -0.257809427267E+03   -0.23712E-01   -0.25861E-01  2928   0.320E+00    0.217E+00
DAV:   3    -0.257789366939E+03    0.20060E-01   -0.11664E-01  3024   0.306E+00    0.960E-01
DAV:   4    -0.257781088018E+03    0.82789E-02   -0.22640E-02  2960   0.103E+00    0.175E-01
DAV:   5    -0.257780685704E+03    0.40231E-03   -0.38333E-03  2728   0.246E-01    0.133E-01
DAV:   6    -0.257780231135E+03    0.45457E-03   -0.63553E-04  2448   0.121E-01    0.167E-01
DAV:   7    -0.257780712757E+03   -0.48162E-03   -0.32806E-04  1800   0.125E-01    0.105E-01
DAV:   8    -0.257780796085E+03   -0.83329E-04   -0.45982E-04  1994   0.123E-01
  33 F= -.25778080E+03 E0= -.25777527E+03  d E =-.599349E-01  mag=    -0.0089
       N       E                     dE             d eps       ncg     rms          rms(c)
DAV:   1    -0.257804488621E+03   -0.23776E-01   -0.28847E+00  2040   0.584E+00    0.465E-01
DAV:   2    -0.257813506787E+03   -0.90182E-02   -0.86458E-02  2960   0.202E+00    0.129E+00
DAV:   3    -0.257805044298E+03    0.84625E-02   -0.42396E-02  3024   0.193E+00    0.515E-01
DAV:   4    -0.257802376303E+03    0.26680E-02   -0.70119E-03  2930   0.568E-01    0.152E-01
DAV:   5    -0.257801536848E+03    0.83945E-03   -0.15550E-03  2724   0.182E-01    0.224E-01
DAV:   6    -0.257802058374E+03   -0.52153E-03   -0.25990E-04  1685   0.110E-01    0.184E-01
DAV:   7    -0.257802488887E+03   -0.43051E-03   -0.11811E-03  2373   0.213E-01    0.660E-02
DAV:   8    -0.257802397393E+03    0.91494E-04   -0.26432E-04  2016   0.826E-02
  34 F= -.25780240E+03 E0= -.25779700E+03  d E =-.815362E-01  mag=     0.0081
       N       E                     dE             d eps       ncg     rms          rms(c)
DAV:   1    -0.257830580179E+03   -0.28091E-01   -0.78392E-01  2050   0.299E+00    0.345E-01
DAV:   2    -0.257857023953E+03   -0.26444E-01   -0.87367E-02  3056   0.266E+00    0.220E+00
DAV:   3    -0.257830438822E+03    0.26585E-01   -0.53743E-02  3024   0.217E+00    0.167E-01
DAV:   4    -0.257830046573E+03    0.39225E-03   -0.16156E-03  2434   0.158E-01    0.140E-01
DAV:   5    -0.257829455319E+03    0.59125E-03   -0.46760E-04  2052   0.114E-01    0.183E-01
DAV:   6    -0.257829793531E+03   -0.33821E-03   -0.17340E-04  1632   0.990E-02    0.153E-01
DAV:   7    -0.257829872894E+03   -0.79363E-04   -0.99541E-04  2328   0.199E-01
  35 F= -.25782987E+03 E0= -.25782428E+03  d E =-.274755E-01  mag=    -0.0149
       N       E                     dE             d eps       ncg     rms          rms(c)
DAV:   1    -0.257858572053E+03   -0.28779E-01   -0.45248E+00  2040   0.719E+00    0.794E-01
DAV:   2    -0.257992228419E+03   -0.13366E+00   -0.46089E-01  3056   0.598E+00    0.499E+00
DAV:   3    -0.257858835481E+03    0.13339E+00   -0.27131E-01  3024   0.471E+00    0.402E-01
DAV:   4    -0.257856955245E+03    0.18802E-02   -0.85504E-03  2592   0.390E-01    0.301E-01
DAV:   5    -0.257855078794E+03    0.18765E-02   -0.28446E-03  2950   0.258E-01    0.366E-01
DAV:   6    -0.257855346466E+03   -0.26767E-03   -0.20508E-04  1904   0.762E-02    0.383E-01
DAV:   7    -0.257851963604E+03    0.33829E-02   -0.94342E-04  2511   0.232E-01    0.432E-01
DAV:   8    -0.257845036550E+03    0.69271E-02   -0.59885E-03  2982   0.592E-01    0.621E-01
DAV:   9    -0.257843511551E+03    0.15250E-02   -0.40110E-04  2054   0.760E-02    0.649E-01
DAV:  10    -0.257848300364E+03   -0.47888E-02   -0.63901E-03  2885   0.616E-01    0.440E-01
DAV:  11    -0.257853518419E+03   -0.52181E-02   -0.44825E-03  2964   0.475E-01    0.209E-01
DAV:  12    -0.257855586350E+03   -0.20679E-02   -0.59841E-04  2208   0.133E-01    0.102E-01
DAV:  13    -0.257856515394E+03   -0.92904E-03   -0.19248E-04  1811   0.718E-02    0.531E-02
DAV:  14    -0.257856862587E+03   -0.34719E-03   -0.11967E-04  1720   0.681E-02    0.291E-02
DAV:  15    -0.257856934925E+03   -0.72337E-04   -0.58587E-05  1584   0.408E-02
  36 F= -.25785693E+03 E0= -.25785094E+03  d E =-.545375E-01  mag=     0.0157
       N       E                     dE             d eps       ncg     rms          rms(c)
DAV:   1    -0.257886946950E+03   -0.30084E-01   -0.19349E+00  2040   0.454E+00    0.449E-01
DAV:   2    -0.257912702022E+03   -0.25755E-01   -0.10961E-01  3024   0.278E+00    0.217E+00
DAV:   3    -0.257886812586E+03    0.25889E-01   -0.61057E-02  3024   0.231E+00    0.248E-01
DAV:   4    -0.257886189463E+03    0.62312E-03   -0.27498E-03  2896   0.247E-01    0.138E-01
DAV:   5    -0.257885877488E+03    0.31198E-03   -0.89179E-04  2631   0.113E-01    0.108E-01
DAV:   6    -0.257885656248E+03    0.22124E-03   -0.14930E-04  1760   0.691E-02    0.138E-01
DAV:   7    -0.257885933899E+03   -0.27765E-03   -0.41998E-04  1812   0.138E-01    0.610E-02
DAV:   8    -0.257885884645E+03    0.49254E-04   -0.14345E-04  1843   0.601E-02
  37 F= -.25788588E+03 E0= -.25787992E+03  d E =-.289497E-01  mag=    -0.0008
       N       E                     dE             d eps       ncg     rms          rms(c)
DAV:   1    -0.257902131716E+03   -0.16198E-01   -0.36015E+00  2040   0.620E+00    0.617E-01
DAV:   2    -0.257951577142E+03   -0.49445E-01   -0.20837E-01  3040   0.384E+00    0.302E+00
DAV:   3    -0.257901943910E+03    0.49633E-01   -0.11601E-01  3024   0.317E+00    0.344E-01
DAV:   4    -0.257900544378E+03    0.13995E-02   -0.52738E-03  2912   0.346E-01    0.185E-01
DAV:   5    -0.257900029969E+03    0.51441E-03   -0.15609E-03  2768   0.145E-01    0.131E-01
DAV:   6    -0.257899544379E+03    0.48559E-03   -0.36620E-04  2136   0.106E-01    0.162E-01
DAV:   7    -0.257900196257E+03   -0.65188E-03   -0.54871E-04  1924   0.156E-01    0.786E-02
DAV:   8    -0.257900342804E+03   -0.14655E-03   -0.32724E-04  1991   0.966E-02    0.238E-02
DAV:   9    -0.257900452732E+03   -0.10993E-03   -0.72729E-05  1552   0.463E-02    0.299E-02
DAV:  10    -0.257900526461E+03   -0.73729E-04   -0.17369E-05  1472   0.216E-02
  38 F= -.25790053E+03 E0= -.25789461E+03  d E =-.435915E-01  mag=     0.0016
       N       E                     dE             d eps       ncg     rms          rms(c)
DAV:   1    -0.257928681980E+03   -0.28229E-01   -0.29382E+00  2040   0.529E+00    0.440E-01
DAV:   2    -0.257936245828E+03   -0.75638E-02   -0.61097E-02  2992   0.171E+00    0.111E+00
DAV:   3    -0.257929362667E+03    0.68832E-02   -0.21802E-02  3040   0.138E+00    0.294E-01
DAV:   4    -0.257928605862E+03    0.75680E-03   -0.36039E-03  2752   0.254E-01    0.599E-02
DAV:   5    -0.257928626003E+03   -0.20142E-04   -0.50454E-04  2280   0.811E-02
  39 F= -.25792863E+03 E0= -.25792293E+03  d E =-.280995E-01  mag=    -0.0012
       N       E                     dE             d eps       ncg     rms          rms(c)
DAV:   1    -0.257948111089E+03   -0.19505E-01   -0.88807E+00  2040   0.920E+00    0.775E-01
DAV:   2    -0.257973907791E+03   -0.25797E-01   -0.21473E-01  2960   0.319E+00    0.200E+00
DAV:   3    -0.257950816539E+03    0.23091E-01   -0.79624E-02  3040   0.255E+00    0.514E-01
DAV:   4    -0.257948378863E+03    0.24377E-02   -0.11449E-02  2780   0.466E-01    0.108E-01
DAV:   5    -0.257948190118E+03    0.18875E-03   -0.16938E-03  2502   0.151E-01    0.103E-01
DAV:   6    -0.257947903324E+03    0.28679E-03   -0.23379E-04  1955   0.758E-02    0.142E-01
DAV:   7    -0.257948353835E+03   -0.45051E-03   -0.44761E-04  1900   0.147E-01    0.720E-02
DAV:   8    -0.257948498632E+03   -0.14480E-03   -0.12724E-04  1729   0.630E-02    0.279E-02
DAV:   9    -0.257948487722E+03    0.10910E-04   -0.66863E-05  1552   0.363E-02
  40 F= -.25794849E+03 E0= -.25794304E+03  d E =-.479613E-01  mag=     0.0037
       N       E                     dE             d eps       ncg     rms          rms(c)
DAV:   1    -0.257984140225E+03   -0.35642E-01   -0.45481E+00  2040   0.667E+00    0.649E-01
DAV:   2    -0.258029730757E+03   -0.45591E-01   -0.19791E-01  3040   0.360E+00    0.293E+00
DAV:   3    -0.257983577467E+03    0.46153E-01   -0.11749E-01  3040   0.315E+00    0.385E-01
DAV:   4    -0.257981795297E+03    0.17822E-02   -0.67142E-03  2900   0.382E-01    0.133E-01
DAV:   5    -0.257981572754E+03    0.22254E-03   -0.11776E-03  2758   0.135E-01    0.901E-02
DAV:   6    -0.257981265429E+03    0.30733E-03   -0.19198E-04  1782   0.792E-02    0.126E-01
DAV:   7    -0.257981622210E+03   -0.35678E-03   -0.23972E-04  1695   0.113E-01    0.715E-02
DAV:   8    -0.257981614651E+03    0.75587E-05   -0.26882E-04  1909   0.966E-02
  41 F= -.25798161E+03 E0= -.25797657E+03  d E =-.331269E-01  mag=    -0.0080
       N       E                     dE             d eps       ncg     rms          rms(c)
DAV:   1    -0.258012679328E+03   -0.31057E-01   -0.15672E+01  2040   0.124E+01    0.115E+00
DAV:   2    -0.258136803535E+03   -0.12412E+00   -0.58656E-01  3048   0.590E+00    0.488E+00
DAV:   3    -0.258013651393E+03    0.12315E+00   -0.34113E-01  3072   0.515E+00    0.760E-01
DAV:   4    -0.258006553923E+03    0.70975E-02   -0.21808E-02  2966   0.761E-01    0.259E-01
DAV:   5    -0.258005662071E+03    0.89185E-03   -0.45652E-03  2772   0.273E-01    0.222E-01
DAV:   6    -0.258004865746E+03    0.79632E-03   -0.72117E-04  2440   0.141E-01    0.295E-01
DAV:   7    -0.258005981473E+03   -0.11157E-02   -0.16793E-03  2348   0.252E-01    0.145E-01
DAV:   8    -0.258006327889E+03   -0.34642E-03   -0.88879E-04  2293   0.166E-01    0.376E-02
DAV:   9    -0.258006572851E+03   -0.24496E-03   -0.12545E-04  1638   0.601E-02    0.347E-02
DAV:  10    -0.258006810387E+03   -0.23754E-03   -0.55314E-05  1583   0.466E-02    0.214E-02
DAV:  11    -0.258006797192E+03    0.13194E-04   -0.33997E-05  1515   0.280E-02
  42 F= -.25800680E+03 E0= -.25800236E+03  d E =-.583095E-01  mag=     0.0006
       N       E                     dE             d eps       ncg     rms          rms(c)
DAV:   1    -0.258035326708E+03   -0.28516E-01   -0.33802E+00  2040   0.579E+00    0.602E-01
DAV:   2    -0.258085020978E+03   -0.49694E-01   -0.19467E-01  3040   0.371E+00    0.304E+00
DAV:   3    -0.258034825860E+03    0.50195E-01   -0.12273E-01  3024   0.317E+00    0.310E-01
DAV:   4    -0.258033544390E+03    0.12815E-02   -0.60975E-03  2640   0.319E-01    0.111E-01
DAV:   5    -0.258033512118E+03    0.32272E-04   -0.88847E-04  2576   0.111E-01
  43 F= -.25803351E+03 E0= -.25802935E+03  d E =-.267149E-01  mag=    -0.0073
       N       E                     dE             d eps       ncg     rms          rms(c)
DAV:   1    -0.258068983384E+03   -0.35439E-01   -0.20080E+01  2040   0.142E+01    0.137E+00
DAV:   2    -0.258304166709E+03   -0.23518E+00   -0.97870E-01  3064   0.797E+00    0.673E+00
DAV:   3    -0.258071235103E+03    0.23293E+00   -0.59057E-01  3040   0.650E+00    0.796E-01
DAV:   4    -0.258061323554E+03    0.99115E-02   -0.33123E-02  2795   0.803E-01    0.308E-01
DAV:   5    -0.258059966558E+03    0.13570E-02   -0.64130E-03  2817   0.324E-01    0.328E-01
DAV:   6    -0.258059262534E+03    0.70402E-03   -0.72702E-04  2416   0.139E-01    0.405E-01
DAV:   7    -0.258060382015E+03   -0.11195E-02   -0.35636E-03  2622   0.341E-01    0.197E-01
DAV:   8    -0.258061734570E+03   -0.13526E-02   -0.13027E-03  2456   0.188E-01    0.559E-02
DAV:   9    -0.258062030304E+03   -0.29573E-03   -0.16611E-04  1779   0.672E-02    0.322E-02
DAV:  10    -0.258062315742E+03   -0.28544E-03   -0.73938E-05  1565   0.524E-02    0.238E-02
DAV:  11    -0.258062263984E+03    0.51758E-04   -0.39369E-05  1528   0.349E-02
  44 F= -.25806226E+03 E0= -.25805886E+03  d E =-.554668E-01  mag=    -0.0002
       N       E                     dE             d eps       ncg     rms          rms(c)
DAV:   1    -0.258100837443E+03   -0.38522E-01   -0.58266E+00  2040   0.760E+00    0.663E-01
DAV:   2    -0.258129962602E+03   -0.29125E-01   -0.17344E-01  3056   0.298E+00    0.231E+00
DAV:   3    -0.258101506819E+03    0.28456E-01   -0.94391E-02  3072   0.272E+00    0.482E-01
DAV:   4    -0.258098933176E+03    0.25736E-02   -0.91372E-03  2896   0.460E-01    0.104E-01
DAV:   5    -0.258098973165E+03   -0.39989E-04   -0.13104E-03  2611   0.123E-01    0.568E-02
DAV:   6    -0.258098805253E+03    0.16791E-03   -0.11077E-04  1603   0.563E-02    0.779E-02
DAV:   7    -0.258098913275E+03   -0.10802E-03   -0.42861E-05  1475   0.512E-02    0.662E-02
DAV:   8    -0.258099034938E+03   -0.12166E-03   -0.14936E-04  1659   0.863E-02    0.399E-02
DAV:   9    -0.258098902760E+03    0.13218E-03   -0.12928E-04  1747   0.498E-02    0.377E-02
DAV:  10    -0.258099108506E+03   -0.20575E-03   -0.70445E-05  1520   0.758E-02    0.263E-02
DAV:  11    -0.258099011400E+03    0.97106E-04   -0.54186E-05  1573   0.493E-02
  45 F= -.25809901E+03 E0= -.25809593E+03  d E =-.367474E-01  mag=    -0.0022
       N       E                     dE             d eps       ncg     rms          rms(c)
DAV:   1    -0.258137497287E+03   -0.38389E-01   -0.33166E+01  2040   0.182E+01    0.147E+00
DAV:   2    -0.258233305793E+03   -0.95809E-01   -0.81929E-01  3072   0.545E+00    0.406E+00
DAV:   3    -0.258148778939E+03    0.84527E-01   -0.37511E-01  3104   0.517E+00    0.128E+00
DAV:   4    -0.258131987047E+03    0.16792E-01   -0.48544E-02  2984   0.127E+00    0.276E-01
DAV:   5    -0.258132390649E+03   -0.40360E-03   -0.81508E-03  2795   0.306E-01    0.150E-01
DAV:   6    -0.258131707933E+03    0.68272E-03   -0.10587E-03  2644   0.152E-01    0.207E-01
DAV:   7    -0.258132295375E+03   -0.58744E-03   -0.50209E-04  1849   0.134E-01    0.147E-01
DAV:   8    -0.258132040114E+03    0.25526E-03   -0.17753E-03  2470   0.229E-01    0.620E-02
DAV:   9    -0.258132575033E+03   -0.53492E-03   -0.16257E-04  1727   0.796E-02    0.644E-02
DAV:  10    -0.258132694053E+03   -0.11902E-03   -0.18834E-04  1699   0.929E-02    0.266E-02
DAV:  11    -0.258132581181E+03    0.11287E-03   -0.11244E-04  1736   0.406E-02    0.192E-02
DAV:  12    -0.258132734249E+03   -0.15307E-03   -0.34230E-05  1471   0.454E-02    0.146E-02
DAV:  13    -0.258132781507E+03   -0.47258E-04   -0.76505E-06  1491   0.126E-02
  46 F= -.25813278E+03 E0= -.25813005E+03  d E =-.705175E-01  mag=     0.0004
       N       E                     dE             d eps       ncg     rms          rms(c)
DAV:   1    -0.258165256643E+03   -0.32522E-01   -0.95972E+00  2040   0.984E+00    0.782E-01
DAV:   2    -0.258180474421E+03   -0.15218E-01   -0.20323E-01  2992   0.257E+00    0.156E+00
DAV:   3    -0.258169813254E+03    0.10661E-01   -0.85720E-02  3152   0.249E+00    0.832E-01
DAV:   4    -0.258163366390E+03    0.64469E-02   -0.18813E-02  3008   0.936E-01    0.128E-01
DAV:   5    -0.258163582890E+03   -0.21650E-03   -0.26298E-03  2409   0.152E-01    0.519E-02
DAV:   6    -0.258163511448E+03    0.71442E-04   -0.23340E-04  1657   0.615E-02
  47 F= -.25816351E+03 E0= -.25816084E+03  d E =-.307299E-01  mag=     0.0082
       N       E                     dE             d eps       ncg     rms          rms(c)
DAV:   1    -0.258166058234E+03   -0.24753E-02   -0.12641E+00  2040   0.357E+00    0.299E-01
DAV:   2    -0.258169334402E+03   -0.32762E-02   -0.32254E-02  3032   0.117E+00    0.752E-01
DAV:   3    -0.258166203459E+03    0.31309E-02   -0.13930E-02  3136   0.101E+00    0.258E-01
DAV:   4    -0.258164728065E+03    0.14754E-02   -0.25359E-03  2651   0.255E-01    0.263E-01
DAV:   5    -0.258164907864E+03   -0.17980E-03   -0.22432E-04  1808   0.678E-02    0.280E-01
DAV:   6    -0.258162718489E+03    0.21894E-02   -0.10599E-03  2401   0.223E-01    0.361E-01
DAV:   7    -0.258158317737E+03    0.44008E-02   -0.97231E-03  2983   0.640E-01    0.626E-01
DAV:   8    -0.258159748538E+03   -0.14308E-02   -0.19034E-02  2868   0.969E-01    0.233E-01
DAV:   9    -0.258165286151E+03   -0.55376E-02   -0.99653E-03  3067   0.555E-01    0.269E-01
DAV:  10    -0.258165776191E+03   -0.49004E-03   -0.95791E-04  2132   0.206E-01    0.240E-01
DAV:  11    -0.258163819896E+03    0.19563E-02   -0.63465E-03  2919   0.514E-01    0.116E-01
DAV:  12    -0.258165420727E+03   -0.16008E-02   -0.93759E-04  2210   0.233E-01    0.544E-02
DAV:  13    -0.258165803781E+03   -0.38305E-03   -0.13017E-04  1692   0.604E-02    0.171E-02
DAV:  14    -0.258165985926E+03   -0.18214E-03   -0.52922E-05  1572   0.253E-02    0.104E-02
DAV:  15    -0.258166018053E+03   -0.32127E-04   -0.92485E-06  1411   0.179E-02
  48 F= -.25816602E+03 E0= -.25816339E+03  d E =-.332365E-01  mag=    -0.0028
       N       E                     dE             d eps       ncg     rms          rms(c)
DAV:   1    -0.258180320053E+03   -0.14334E-01   -0.65362E-01  2040   0.274E+00    0.197E-01
DAV:   2    -0.258180518538E+03   -0.19848E-03   -0.11906E-02  2904   0.556E-01    0.225E-01
DAV:   3    -0.258181125908E+03   -0.60737E-03   -0.59890E-03  3104   0.651E-01    0.386E-01
DAV:   4    -0.258180068142E+03    0.10578E-02   -0.30731E-03  2871   0.477E-01    0.617E-02
DAV:   5    -0.258179940819E+03    0.12732E-03   -0.29819E-04  1812   0.734E-02    0.709E-02
DAV:   6    -0.258179967310E+03   -0.26490E-04   -0.41900E-05  1371   0.359E-02
  49 F= -.25817997E+03 E0= -.25817751E+03  d E =-.139493E-01  mag=    -0.0099
       N       E                     dE             d eps       ncg     rms          rms(c)
DAV:   1    -0.258187677731E+03   -0.77369E-02   -0.13593E+00  2040   0.395E+00    0.303E-01
DAV:   2    -0.258187717652E+03   -0.39921E-04   -0.24286E-02  2784   0.755E-01    0.315E-01
DAV:   3    -0.258188901814E+03   -0.11842E-02   -0.11653E-02  3152   0.905E-01    0.582E-01
DAV:   4    -0.258186005389E+03    0.28964E-02   -0.68941E-03  2961   0.695E-01    0.284E-01
DAV:   5    -0.258186086633E+03   -0.81244E-04   -0.32834E-04  1952   0.716E-02
  50 F= -.25818609E+03 E0= -.25818427E+03  d E =-.200686E-01  mag=    -0.0659
       N       E                     dE             d eps       ncg     rms          rms(c)
DAV:   1    -0.258190066351E+03   -0.40610E-02   -0.63195E-01  2075   0.266E+00    0.443E-01
DAV:   2    -0.258194601836E+03   -0.45355E-02   -0.34724E-02  2982   0.142E+00    0.102E+00
DAV:   3    -0.258188906622E+03    0.56952E-02   -0.19356E-02  3016   0.120E+00    0.648E-01
DAV:   4    -0.258191118842E+03   -0.22122E-02   -0.41874E-03  2637   0.361E-01    0.580E-01
DAV:   5    -0.258191474000E+03   -0.35516E-03   -0.92637E-03  2930   0.529E-01    0.269E-01
DAV:   6    -0.258191942919E+03   -0.46892E-03   -0.33090E-03  2764   0.268E-01    0.101E-01
DAV:   7    -0.258192106335E+03   -0.16342E-03   -0.14123E-03  2671   0.239E-01    0.456E-02
DAV:   8    -0.258192577145E+03   -0.47081E-03   -0.11921E-04  1626   0.462E-02    0.307E-02
DAV:   9    -0.258193150361E+03   -0.57322E-03   -0.18811E-04  1647   0.839E-02    0.244E-02
DAV:  10    -0.258193159781E+03   -0.94202E-05   -0.28194E-05  1448   0.391E-02
  51 F= -.25819316E+03 E0= -.25819099E+03  d E =-.707315E-02  mag=     0.0002
       N       E                     dE             d eps       ncg     rms          rms(c)
DAV:   1    -0.258193180117E+03   -0.29757E-04   -0.11737E-03  2140   0.114E-01    0.959E-03
DAV:   2    -0.258193222314E+03   -0.42197E-04   -0.19003E-05  1398   0.202E-02
  52 F= -.25819322E+03 E0= -.25819106E+03  d E =-.713568E-02  mag=     0.0001
       N       E                     dE             d eps       ncg     rms          rms(c)
DAV:   1    -0.258195971583E+03   -0.27915E-02   -0.14912E-01  2070   0.131E+00    0.106E-01
DAV:   2    -0.258196082931E+03   -0.11135E-03   -0.32516E-03  2984   0.325E-01    0.170E-01
DAV:   3    -0.258196041748E+03    0.41183E-04   -0.16400E-03  2688   0.350E-01    0.148E-01
DAV:   4    -0.258195875727E+03    0.16602E-03   -0.42699E-04  2102   0.180E-01    0.239E-02
DAV:   5    -0.258195890602E+03   -0.14875E-04   -0.10772E-04  1419   0.360E-02
  53 F= -.25819589E+03 E0= -.25819361E+03  d E =-.266829E-02  mag=    -0.0003
       N       E                     dE             d eps       ncg     rms          rms(c)
DAV:   1    -0.258196579741E+03   -0.70401E-03   -0.98673E-02  2060   0.107E+00    0.862E-02
DAV:   2    -0.258196564640E+03    0.15101E-04   -0.18573E-03  2752   0.186E-01    0.570E-02
DAV:   3    -0.258196698992E+03   -0.13435E-03   -0.71817E-04  2315   0.221E-01    0.167E-01
DAV:   4    -0.258196517522E+03    0.18147E-03   -0.62511E-04  2171   0.232E-01    0.348E-02
DAV:   5    -0.258196472229E+03    0.45293E-04   -0.64235E-05  1388   0.431E-02
  54 F= -.25819647E+03 E0= -.25819408E+03  d E =-.324992E-02  mag=    -0.0034
       N       E                     dE             d eps       ncg     rms          rms(c)
DAV:   1    -0.258198493326E+03   -0.19758E-02   -0.24375E-01  2040   0.157E+00    0.129E-01
DAV:   2    -0.258198684319E+03   -0.19099E-03   -0.43356E-03  2936   0.301E-01    0.212E-01
DAV:   3    -0.258198480058E+03    0.20426E-03   -0.16297E-03  2704   0.347E-01    0.135E-01
DAV:   4    -0.258198057783E+03    0.42227E-03   -0.51494E-04  1998   0.140E-01    0.123E-01
DAV:   5    -0.258198164731E+03   -0.10695E-03   -0.74594E-05  1461   0.461E-02    0.118E-01
DAV:   6    -0.258198320729E+03   -0.15600E-03   -0.55503E-05  1556   0.456E-02    0.990E-02
DAV:   7    -0.258197731816E+03    0.58891E-03   -0.22502E-03  2512   0.266E-01    0.130E-01
DAV:   8    -0.258198376367E+03   -0.64455E-03   -0.29202E-04  1716   0.131E-01    0.103E-01
DAV:   9    -0.258198284074E+03    0.92293E-04   -0.39816E-04  1870   0.113E-01
  55 F= -.25819828E+03 E0= -.25819574E+03  d E =-.181184E-02  mag=    -0.0126
       N       E                     dE             d eps       ncg     rms          rms(c)
DAV:   1    -0.258198584363E+03   -0.20800E-03   -0.13877E-01  2231   0.119E+00    0.996E-02
DAV:   2    -0.258198817179E+03   -0.23282E-03   -0.26708E-03  2856   0.245E-01    0.190E-01
DAV:   3    -0.258198678181E+03    0.13900E-03   -0.45174E-04  2128   0.177E-01    0.140E-01
DAV:   4    -0.258198646261E+03    0.31920E-04   -0.40824E-05  1342   0.307E-02
  56 F= -.25819865E+03 E0= -.25819611E+03  d E =-.217403E-02  mag=    -0.0177
       N       E                     dE             d eps       ncg     rms          rms(c)
DAV:   1    -0.258200313102E+03   -0.16349E-02   -0.22403E-01  2040   0.150E+00    0.206E-01
DAV:   2    -0.258200037968E+03    0.27513E-03   -0.50517E-03  2672   0.380E-01    0.267E-01
DAV:   3    -0.258199765405E+03    0.27256E-03   -0.15606E-03  2600   0.315E-01    0.300E-01
DAV:   4    -0.258199899696E+03   -0.13429E-03   -0.11099E-04  1528   0.595E-02    0.319E-01
DAV:   5    -0.258200242661E+03   -0.34297E-03   -0.23313E-04  1736   0.945E-02    0.273E-01
DAV:   6    -0.258198726365E+03    0.15163E-02   -0.56186E-03  2820   0.383E-01    0.112E-01
DAV:   7    -0.258200223912E+03   -0.14975E-02   -0.82160E-04  2055   0.202E-01    0.738E-02
DAV:   8    -0.258199649130E+03    0.57478E-03   -0.55098E-04  2060   0.131E-01    0.238E-02
DAV:   9    -0.258200184478E+03   -0.53535E-03   -0.10512E-04  1548   0.741E-02    0.199E-02
DAV:  10    -0.258200392857E+03   -0.20838E-03   -0.51781E-05  1569   0.318E-02    0.129E-02
DAV:  11    -0.258200398782E+03   -0.59251E-05   -0.15896E-05  1456   0.298E-02
  57 F= -.25820040E+03 E0= -.25819766E+03  d E =-.175252E-02  mag=     0.0003
       N       E                     dE             d eps       ncg     rms          rms(c)
DAV:   1    -0.258200582790E+03   -0.18993E-03   -0.37549E-02  2090   0.614E-01    0.500E-02
DAV:   2    -0.258200629075E+03   -0.46285E-04   -0.72761E-04  2544   0.146E-01
  58 F= -.25820063E+03 E0= -.25819784E+03  d E =-.198281E-02  mag=     0.0004
       N       E                     dE             d eps       ncg     rms          rms(c)
DAV:   1    -0.258202289241E+03   -0.17065E-02   -0.15321E-01  2040   0.128E+00    0.146E-01
DAV:   2    -0.258204807868E+03   -0.25186E-02   -0.11129E-02  2985   0.842E-01    0.640E-01
DAV:   3    -0.258202156791E+03    0.26511E-02   -0.78871E-03  3016   0.792E-01    0.740E-02
DAV:   4    -0.258202104573E+03    0.52218E-04   -0.50506E-04  2093   0.759E-02
  59 F= -.25820210E+03 E0= -.25819927E+03  d E =-.147550E-02  mag=     0.0035
       N       E                     dE             d eps       ncg     rms          rms(c)
DAV:   1    -0.258203336682E+03   -0.11799E-02   -0.43183E-01  2040   0.212E+00    0.176E-01
DAV:   2    -0.258204625832E+03   -0.12891E-02   -0.12352E-02  2896   0.759E-01    0.466E-01
DAV:   3    -0.258203378244E+03    0.12476E-02   -0.55010E-03  3048   0.645E-01    0.147E-01
DAV:   4    -0.258202865230E+03    0.51301E-03   -0.93088E-04  2393   0.157E-01    0.117E-01
DAV:   5    -0.258202693083E+03    0.17215E-03   -0.18276E-04  1686   0.596E-02    0.160E-01
DAV:   6    -0.258202940617E+03   -0.24753E-03   -0.57679E-04  1863   0.139E-01    0.826E-02
DAV:   7    -0.258203189626E+03   -0.24901E-03   -0.20519E-04  1763   0.638E-02    0.210E-02
DAV:   8    -0.258203245882E+03   -0.56256E-04   -0.67892E-05  1600   0.350E-02
  60 F= -.25820325E+03 E0= -.25820027E+03  d E =-.261681E-02  mag=    -0.0022
       N       E                     dE             d eps       ncg     rms          rms(c)
DAV:   1    -0.258204835269E+03   -0.16456E-02   -0.24180E-01  2040   0.158E+00    0.131E-01
DAV:   2    -0.258205276548E+03   -0.44128E-03   -0.60937E-03  2794   0.463E-01    0.280E-01
DAV:   3    -0.258204880586E+03    0.39596E-03   -0.25086E-03  2888   0.432E-01    0.126E-01
DAV:   4    -0.258204613415E+03    0.26717E-03   -0.63445E-04  2410   0.144E-01    0.555E-02
DAV:   5    -0.258204492029E+03    0.12139E-03   -0.11480E-04  1622   0.512E-02    0.849E-02
DAV:   6    -0.258204616545E+03   -0.12452E-03   -0.24509E-04  1630   0.996E-02    0.315E-02
DAV:   7    -0.258204681012E+03   -0.64467E-04   -0.59446E-05  1594   0.316E-02
  61 F= -.25820468E+03 E0= -.25820172E+03  d E =-.143513E-02  mag=     0.0027
       N       E                     dE             d eps       ncg     rms          rms(c)
DAV:   1    -0.258204992948E+03   -0.37640E-03   -0.81696E-02  2040   0.918E-01    0.779E-02
DAV:   2    -0.258205160803E+03   -0.16786E-03   -0.21170E-03  2796   0.276E-01    0.169E-01
DAV:   3    -0.258205009327E+03    0.15148E-03   -0.84850E-04  2376   0.254E-01    0.749E-02
DAV:   4    -0.258204855987E+03    0.15334E-03   -0.18930E-04  1557   0.840E-02    0.557E-02
DAV:   5    -0.258204829715E+03    0.26273E-04   -0.67566E-05  1512   0.369E-02
  62 F= -.25820483E+03 E0= -.25820191E+03  d E =-.158383E-02  mag=     0.0075
       N       E                     dE             d eps       ncg     rms          rms(c)
DAV:   1    -0.258205817099E+03   -0.96111E-03   -0.11121E-01  2040   0.106E+00    0.110E-01
DAV:   2    -0.258205663332E+03    0.15377E-03   -0.20843E-03  2462   0.161E-01    0.116E-01
DAV:   3    -0.258205393001E+03    0.27033E-03   -0.19783E-04  1702   0.665E-02    0.158E-01
DAV:   4    -0.258205795053E+03   -0.40205E-03   -0.74240E-04  2163   0.223E-01    0.251E-01
DAV:   5    -0.258205632304E+03    0.16275E-03   -0.11561E-03  2351   0.284E-01    0.906E-02
DAV:   6    -0.258205765709E+03   -0.13340E-03   -0.35566E-04  1846   0.980E-02    0.179E-02
DAV:   7    -0.258205872716E+03   -0.10701E-03   -0.72594E-05  1552   0.407E-02    0.274E-02
DAV:   8    -0.258205917969E+03   -0.45254E-04   -0.14516E-05  1391   0.220E-02
  63 F= -.25820592E+03 E0= -.25820297E+03  d E =-.108825E-02  mag=    -0.0011
       N       E                     dE             d eps       ncg     rms          rms(c)
DAV:   1    -0.258207615709E+03   -0.17430E-02   -0.91060E-01  2040   0.303E+00    0.238E-01
DAV:   2    -0.258207695718E+03   -0.80009E-04   -0.16086E-02  2532   0.434E-01    0.159E-01
DAV:   3    -0.258208954229E+03   -0.12585E-02   -0.63388E-03  2967   0.655E-01    0.518E-01
DAV:   4    -0.258207302037E+03    0.16522E-02   -0.58781E-03  3008   0.658E-01    0.766E-02
DAV:   5    -0.258207207599E+03    0.94437E-04   -0.20798E-04  1747   0.906E-02
  64 F= -.25820721E+03 E0= -.25820429E+03  d E =-.237788E-02  mag=    -0.0068
       N       E                     dE             d eps       ncg     rms          rms(c)
DAV:   1    -0.258208104131E+03   -0.80209E-03   -0.77667E-02  2080   0.915E-01    0.110E-01
DAV:   2    -0.258209045704E+03   -0.94157E-03   -0.54285E-03  2956   0.592E-01    0.443E-01
DAV:   3    -0.258207891987E+03    0.11537E-02   -0.24881E-03  2696   0.437E-01    0.136E-01
DAV:   4    -0.258207901991E+03   -0.10004E-04   -0.60519E-05  1416   0.313E-02
  65 F= -.25820790E+03 E0= -.25820501E+03  d E =-.694391E-03  mag=    -0.0176
       N       E                     dE             d eps       ncg     rms          rms(c)
DAV:   1    -0.258208173440E+03   -0.28145E-03   -0.17612E-01  2040   0.138E+00    0.210E-01
DAV:   2    -0.258208754114E+03   -0.58067E-03   -0.91586E-03  2928   0.727E-01    0.562E-01
DAV:   3    -0.258207284159E+03    0.14700E-02   -0.25993E-03  2840   0.437E-01    0.316E-01
DAV:   4    -0.258207499679E+03   -0.21552E-03   -0.20287E-04  1709   0.761E-02    0.276E-01
DAV:   5    -0.258208037812E+03   -0.53813E-03   -0.87995E-04  2171   0.151E-01    0.175E-01
DAV:   6    -0.258207785692E+03    0.25212E-03   -0.14175E-03  2722   0.155E-01    0.497E-02
DAV:   7    -0.258208195000E+03   -0.40931E-03   -0.18285E-04  1591   0.779E-02    0.494E-02
DAV:   8    -0.258207844442E+03    0.35056E-03   -0.23916E-04  1742   0.981E-02    0.139E-02
DAV:   9    -0.258208054224E+03   -0.20978E-03   -0.45830E-05  1485   0.353E-02    0.223E-02
DAV:  10    -0.258208093786E+03   -0.39563E-04   -0.12927E-05  1408   0.123E-02
  66 F= -.25820809E+03 E0= -.25820503E+03  d E =-.886187E-03  mag=     0.0008
       N       E                     dE             d eps       ncg     rms          rms(c)
[...]
  67 F= -.25820843E+03 E0= -.25820539E+03  d E =-.121843E-02  mag=    -0.0001
       N       E                     dE             d eps       ncg     rms          rms(c)
DAV:   1    -0.258209024269E+03   -0.60121E-03   -0.86556E-02  2040   0.942E-01    0.727E-02
DAV:   2    -0.258209070955E+03   -0.46686E-04   -0.17439E-03  2776   0.196E-01    0.979E-02
DAV:   3    -0.258209087875E+03   -0.16920E-04   -0.67366E-04  2312   0.225E-01
  68 F= -.25820909E+03 E0= -.25820600E+03  d E =-.661845E-03  mag=    -0.0013
       N       E                     dE             d eps       ncg     rms          rms(c)
DAV:   1    -0.258208839358E+03    0.23160E-03   -0.53987E-01  2040   0.237E+00    0.194E-01
DAV:   2    -0.258209256041E+03   -0.41668E-03   -0.11280E-02  2832   0.579E-01    0.296E-01
DAV:   3    -0.258209126791E+03    0.12925E-03   -0.45528E-03  3104   0.572E-01    0.257E-01
DAV:   4    -0.258208501532E+03    0.62526E-03   -0.17689E-03  2850   0.305E-01    0.568E-02
DAV:   5    -0.258208359004E+03    0.14253E-03   -0.24015E-04  1746   0.676E-02    0.900E-02
DAV:   6    -0.258208501535E+03   -0.14253E-03   -0.13488E-04  1532   0.811E-02    0.584E-02
DAV:   7    -0.258208538921E+03   -0.37386E-04   -0.18612E-04  1697   0.745E-02
  69 F= -.25820854E+03 E0= -.25820548E+03  d E =-.112891E-03  mag=     0.0055
       N       E                     dE             d eps       ncg     rms          rms(c)
DAV:   1    -0.258209201649E+03   -0.70011E-03   -0.16317E-01  2040   0.130E+00    0.998E-02
DAV:   2    -0.258209268813E+03   -0.67164E-04   -0.33211E-03  2790   0.283E-01    0.148E-01
DAV:   3    -0.258209232771E+03    0.36042E-04   -0.11628E-03  2520   0.291E-01    0.146E-01
DAV:   4    -0.258208893971E+03    0.33880E-03   -0.41590E-04  1833   0.151E-01    0.104E-01
DAV:   5    -0.258208964956E+03   -0.70985E-04   -0.76928E-05  1451   0.410E-02
  70 F= -.25820896E+03 E0= -.25820597E+03  d E =-.538925E-03  mag=    -0.0011
       N       E                     dE             d eps       ncg     rms          rms(c)
DAV:   1    -0.258209060392E+03   -0.16642E-03   -0.82358E-03  2238   0.307E-01    0.660E-02
DAV:   2    -0.258209075490E+03   -0.15098E-04   -0.40794E-04  1847   0.161E-01
  71 F= -.25820908E+03 E0= -.25820599E+03  d E =-.649460E-03  mag=     0.0044
       N       E                     dE             d eps       ncg     rms          rms(c)
DAV:   1    -0.258209638891E+03   -0.57850E-03   -0.11617E-01  2040   0.112E+00    0.947E-02
DAV:   2    -0.258209507605E+03    0.13129E-03   -0.26404E-03  2704   0.238E-01    0.142E-01
DAV:   3    -0.258209383346E+03    0.12426E-03   -0.39744E-04  2160   0.166E-01    0.126E-01
DAV:   4    -0.258209332855E+03    0.50490E-04   -0.47174E-05  1395   0.354E-02
  72 F= -.25820933E+03 E0= -.25820630E+03  d E =-.257366E-03  mag=     0.0140
       N       E                     dE             d eps       ncg     rms          rms(c)
DAV:   1    -0.258209460014E+03   -0.76669E-04   -0.22340E-01  2040   0.153E+00    0.205E-01
DAV:   2    -0.258210388851E+03   -0.92884E-03   -0.99177E-03  2930   0.698E-01    0.580E-01
DAV:   3    -0.258208553327E+03    0.18355E-02   -0.45610E-03  3024   0.586E-01    0.262E-01
DAV:   4    -0.258208725145E+03   -0.17182E-03   -0.15572E-04  1671   0.572E-02    0.244E-01
DAV:   5    -0.258209266709E+03   -0.54156E-03   -0.16769E-03  2326   0.237E-01    0.141E-01
DAV:   6    -0.258208769230E+03    0.49748E-03   -0.15933E-03  2719   0.177E-01    0.114E-01
DAV:   7    -0.258209482877E+03   -0.71365E-03   -0.62499E-04  2060   0.174E-01    0.674E-02
DAV:   8    -0.258208908908E+03    0.57397E-03   -0.53041E-04  2098   0.129E-01    0.333E-02
DAV:   9    -0.258209322537E+03   -0.41363E-03   -0.78384E-05  1545   0.615E-02    0.334E-02
DAV:  10    -0.258209525337E+03   -0.20280E-03   -0.42641E-05  1485   0.329E-02    0.949E-03
DAV:  11    -0.258209594813E+03   -0.69476E-04   -0.22773E-05  1522   0.140E-02
  73 F= -.25820959E+03 E0= -.25820644E+03  d E =-.519323E-03  mag=    -0.0009
       N       E                     dE             d eps       ncg     rms          rms(c)
DAV:   1    -0.258209889153E+03   -0.36382E-03   -0.59014E-02  2040   0.787E-01    0.653E-02
DAV:   2    -0.258209986265E+03   -0.97112E-04   -0.14224E-03  2801   0.214E-01    0.135E-01
DAV:   3    -0.258209904314E+03    0.81951E-04   -0.65810E-04  2307   0.225E-01
  74 F= -.25820990E+03 E0= -.25820682E+03  d E =-.828824E-03  mag=    -0.0026
       N       E                     dE             d eps       ncg     rms          rms(c)
DAV:   1    -0.258209849302E+03    0.13696E-03   -0.63590E-03  2190   0.278E-01    0.345E-02
DAV:   2    -0.258209833123E+03    0.16179E-04   -0.17678E-04  1723   0.103E-01
  75 F= -.25820983E+03 E0= -.25820669E+03  d E =-.757633E-03  mag=    -0.0053
       N       E                     dE             d eps       ncg     rms          rms(c)
DAV:   1    -0.258210120380E+03   -0.27108E-03   -0.48063E-02  2040   0.720E-01    0.634E-02
DAV:   2    -0.258210060535E+03    0.59846E-04   -0.11898E-03  2698   0.175E-01    0.111E-01
DAV:   3    -0.258209997550E+03    0.62984E-04   -0.86241E-05  1512   0.811E-02
  76 F= -.25821000E+03 E0= -.25820692E+03  d E =-.164427E-03  mag=    -0.0080
       N       E                     dE             d eps       ncg     rms          rms(c)
DAV:   1    -0.258210168531E+03   -0.10800E-03   -0.41631E-02  2060   0.664E-01    0.111E-01
DAV:   2    -0.258210060546E+03    0.10799E-03   -0.17709E-03  2766   0.280E-01    0.237E-01
DAV:   3    -0.258209764417E+03    0.29613E-03   -0.59120E-04  2296   0.211E-01    0.153E-01
DAV:   4    -0.258209893312E+03   -0.12890E-03   -0.95088E-05  1521   0.530E-02    0.130E-01
DAV:   5    -0.258210027414E+03   -0.13410E-03   -0.46050E-04  1966   0.112E-01    0.713E-02
DAV:   6    -0.258209901743E+03    0.12567E-03   -0.44002E-04  1987   0.799E-02    0.473E-02
DAV:   7    -0.258210155482E+03   -0.25374E-03   -0.12636E-04  1553   0.874E-02    0.333E-02
DAV:   8    -0.258209961759E+03    0.19372E-03   -0.11561E-04  1716   0.567E-02    0.161E-02
DAV:   9    -0.258210063238E+03   -0.10148E-03   -0.27690E-05  1472   0.293E-02    0.207E-02
DAV:  10    -0.258210132487E+03   -0.69249E-04   -0.78641E-06  1391   0.122E-02
  77 F= -.25821013E+03 E0= -.25820700E+03  d E =-.299364E-03  mag=     0.0008
       N       E                     dE             d eps       ncg     rms          rms(c)
DAV:   1    -0.258210223821E+03   -0.16058E-03   -0.72997E-03  2164   0.278E-01    0.215E-02
DAV:   2    -0.258210239341E+03   -0.15520E-04   -0.13534E-04  1534   0.706E-02
  78 F= -.25821024E+03 E0= -.25820710E+03  d E =-.406218E-03  mag=     0.0006
       N       E                     dE             d eps       ncg     rms          rms(c)
DAV:   1    -0.258210435283E+03   -0.21146E-03   -0.34314E-02  2040   0.602E-01    0.363E-02
DAV:   2    -0.258210471680E+03   -0.36397E-04   -0.71313E-04  2457   0.930E-02
  79 F= -.25821047E+03 E0= -.25820732E+03  d E =-.232340E-03  mag=     0.0009
       N       E                     dE             d eps       ncg     rms          rms(c)
DAV:   1    -0.258210595762E+03   -0.16048E-03   -0.12615E-01  2040   0.115E+00    0.108E-01
DAV:   2    -0.258211135335E+03   -0.53957E-03   -0.43242E-03  2992   0.421E-01    0.310E-01
DAV:   3    -0.258210562318E+03    0.57302E-03   -0.23369E-03  2808   0.425E-01    0.881E-02
DAV:   4    -0.258210439858E+03    0.12246E-03   -0.39080E-04  1910   0.989E-02    0.341E-02
DAV:   5    -0.258210381659E+03    0.58199E-04   -0.73632E-05  1529   0.390E-02
  80 F= -.25821038E+03 E0= -.25820725E+03  d E =-.142318E-03  mag=     0.0045
       N       E                     dE             d eps       ncg     rms          rms(c)
DAV:   1    -0.258210482458E+03   -0.42600E-04   -0.19306E-02  2085   0.447E-01    0.546E-02
DAV:   2    -0.258210398203E+03    0.84255E-04   -0.50523E-04  2151   0.120E-01
  81 F= -.25821040E+03 E0= -.25820726E+03  d E =-.158862E-03  mag=     0.0097
       N       E                     dE             d eps       ncg     rms          rms(c)
DAV:   1    -0.258210626474E+03   -0.14402E-03   -0.54790E-02  2040   0.750E-01    0.107E-01
DAV:   2    -0.258211309828E+03   -0.68335E-03   -0.49136E-03  2931   0.562E-01    0.437E-01
DAV:   3    -0.258210248338E+03    0.10615E-02   -0.19641E-03  2651   0.385E-01    0.190E-01
DAV:   4    -0.258210548042E+03   -0.29970E-03   -0.63273E-04  1940   0.129E-01    0.979E-02
DAV:   5    -0.258210735412E+03   -0.18737E-03   -0.23400E-04  1790   0.621E-02    0.408E-02
DAV:   6    -0.258210767682E+03   -0.32269E-04   -0.13322E-04  1592   0.483E-02
  82 F= -.25821077E+03 E0= -.25820759E+03  d E =-.369479E-03  mag=    -0.0038
       N       E                     dE             d eps       ncg     rms          rms(c)
DAV:   1    -0.258210902938E+03   -0.16753E-03   -0.73798E-02  2075   0.873E-01    0.858E-02
DAV:   2    -0.258211642869E+03   -0.73993E-03   -0.40708E-03  2926   0.496E-01    0.357E-01
DAV:   3    -0.258210875991E+03    0.76688E-03   -0.21852E-03  2672   0.409E-01    0.573E-02
DAV:   4    -0.258210714752E+03    0.16124E-03   -0.16524E-04  1596   0.573E-02    0.788E-02
DAV:   5    -0.258210757227E+03   -0.42476E-04   -0.40333E-05  1394   0.431E-02
  83 F= -.25821076E+03 E0= -.25820755E+03  d E =-.359024E-03  mag=    -0.0042
       N       E                     dE             d eps       ncg     rms          rms(c)
DAV:   1    -0.258210993914E+03   -0.27916E-03   -0.39344E-02  2103   0.624E-01    0.888E-02
DAV:   2    -0.258210828308E+03    0.16561E-03   -0.85866E-04  2412   0.140E-01    0.115E-01
DAV:   3    -0.258210735418E+03    0.92889E-04   -0.20665E-04  1840   0.128E-01
  84 F= -.25821074E+03 E0= -.25820753E+03  d E =0.218091E-04  mag=    -0.0127
       N       E                     dE             d eps       ncg     rms          rms(c)
DAV:   1    -0.258210933553E+03   -0.10525E-03   -0.24095E-01  2040   0.154E+00    0.194E-01
DAV:   2    -0.258211454231E+03   -0.52068E-03   -0.86781E-03  2908   0.639E-01    0.503E-01
DAV:   3    -0.258210119882E+03    0.13343E-02   -0.33348E-03  2952   0.495E-01    0.250E-01
DAV:   4    -0.258210291547E+03   -0.17166E-03   -0.14725E-04  1684   0.595E-02    0.231E-01
DAV:   5    -0.258210751222E+03   -0.45968E-03   -0.14618E-03  2278   0.211E-01    0.120E-01
DAV:   6    -0.258210408110E+03    0.34311E-03   -0.13121E-03  2623   0.156E-01    0.981E-02
DAV:   7    -0.258210951476E+03   -0.54337E-03   -0.44590E-04  1900   0.145E-01    0.627E-02
DAV:   8    -0.258210422889E+03    0.52859E-03   -0.45507E-04  1986   0.119E-01    0.301E-02
DAV:   9    -0.258210797811E+03   -0.37492E-03   -0.75405E-05  1542   0.599E-02    0.337E-02
DAV:  10    -0.258210924111E+03   -0.12630E-03   -0.22609E-05  1415   0.192E-02    0.204E-02
DAV:  11    -0.258211031192E+03   -0.10708E-03   -0.32986E-05  1526   0.216E-02    0.300E-03
DAV:  12    -0.258211052109E+03   -0.20917E-04   -0.86291E-06  1425   0.175E-02
  85 F= -.25821105E+03 E0= -.25820777E+03  d E =-.294882E-03  mag=     0.0006
       N       E                     dE             d eps       ncg     rms          rms(c)
DAV:   1    -0.258211110427E+03   -0.79235E-04   -0.29020E-02  2040   0.534E-01    0.405E-02
DAV:   2    -0.258211137729E+03   -0.27302E-04   -0.56927E-04  2358   0.117E-01
  86 F= -.25821114E+03 E0= -.25820785E+03  d E =-.380501E-03  mag=     0.0010
       N       E                     dE             d eps       ncg     rms          rms(c)
DAV:   1    -0.258211327772E+03   -0.21735E-03   -0.22514E-02  2040   0.499E-01    0.417E-02
DAV:   2    -0.258211585207E+03   -0.25744E-03   -0.12520E-03  2642   0.253E-01    0.200E-01
DAV:   3    -0.258211331160E+03    0.25405E-03   -0.75222E-04  2347   0.247E-01    0.286E-02
DAV:   4    -0.258211298206E+03    0.32954E-04   -0.42130E-05  1415   0.291E-02
  87 F= -.25821130E+03 E0= -.25820805E+03  d E =-.160477E-03  mag=     0.0045
       N       E                     dE             d eps       ncg     rms          rms(c)
DAV:   1    -0.258211368543E+03   -0.37383E-04   -0.24488E-02  2040   0.507E-01    0.607E-02
DAV:   2    -0.258211334675E+03    0.33868E-04   -0.86438E-04  2598   0.195E-01
  88 F= -.25821133E+03 E0= -.25820817E+03  d E =-.196946E-03  mag=     0.0094
       N       E                     dE             d eps       ncg     rms          rms(c)
DAV:   1    -0.258211370439E+03   -0.18966E-05   -0.26941E-02  2050   0.534E-01    0.103E-01
DAV:   2    -0.258211283094E+03    0.87345E-04   -0.19071E-03  2846   0.319E-01    0.251E-01
DAV:   3    -0.258210978118E+03    0.30498E-03   -0.48039E-04  2240   0.186E-01    0.170E-01
DAV:   4    -0.258211230803E+03   -0.25269E-03   -0.39866E-04  1849   0.102E-01    0.104E-01
DAV:   5    -0.258211343530E+03   -0.11273E-03   -0.33762E-04  1854   0.913E-02    0.388E-02
DAV:   6    -0.258211333013E+03    0.10517E-04   -0.20605E-04  1776   0.509E-02
  89 F= -.25821133E+03 E0= -.25820815E+03  d E =0.166161E-05  mag=    -0.0040
       N       E                     dE             d eps       ncg     rms          rms(c)
DAV:   1    -0.258211466777E+03   -0.12325E-03   -0.87920E-05  1542   0.609E-02    0.235E-02
DAV:   2    -0.258211479789E+03   -0.13012E-04   -0.33699E-05  1478   0.330E-02
  90 F= -.25821148E+03 E0= -.25820830E+03  d E =-.145114E-03  mag=    -0.0045
       N       E                     dE             d eps       ncg     rms          rms(c)
DAV:   1    -0.258211629881E+03   -0.16310E-03   -0.10470E-02  2148   0.345E-01    0.462E-02
DAV:   2    -0.258211550971E+03    0.78909E-04   -0.27266E-04  1748   0.685E-02
  91 F= -.25821155E+03 E0= -.25820837E+03  d E =-.711822E-04  mag=    -0.0075
       N       E                     dE             d eps       ncg     rms          rms(c)
DAV:   1    -0.258211585073E+03    0.44807E-04   -0.35028E-03  2174   0.201E-01    0.759E-02
DAV:   2    -0.258211595776E+03   -0.10703E-04   -0.10264E-03  2244   0.257E-01    0.231E-01
DAV:   3    -0.258211343863E+03    0.25191E-03   -0.31085E-04  1960   0.165E-01    0.148E-01
DAV:   4    -0.258211463077E+03   -0.11921E-03   -0.36017E-04  1852   0.953E-02    0.711E-02
DAV:   5    -0.258211440033E+03    0.23044E-04   -0.24126E-04  1869   0.679E-02
  92 F= -.25821144E+03 E0= -.25820824E+03  d E =0.397554E-04  mag=     0.0075
       N       E                     dE             d eps       ncg     rms          rms(c)
DAV:   1    -0.258211586477E+03   -0.12340E-03   -0.80508E-03  2232   0.303E-01    0.455E-02
DAV:   2    -0.258211773329E+03   -0.18685E-03   -0.82354E-04  2304   0.235E-01    0.188E-01
DAV:   3    -0.258211589953E+03    0.18338E-03   -0.36431E-04  2008   0.179E-01    0.842E-02
DAV:   4    -0.258211596088E+03   -0.61352E-05   -0.67021E-05  1430   0.421E-02
  93 F= -.25821160E+03 E0= -.25820840E+03  d E =-.156054E-03  mag=     0.0058
       N       E                     dE             d eps       ncg     rms          rms(c)
DAV:   1    -0.258211660922E+03   -0.70970E-04   -0.25487E-03  2240   0.169E-01    0.511E-02
DAV:   2    -0.258211602403E+03    0.58519E-04   -0.12579E-04  1494   0.613E-02
  94 F= -.25821160E+03 E0= -.25820842E+03  d E =-.162370E-03  mag=     0.0057
       N       E                     dE             d eps       ncg     rms          rms(c)
DAV:   1    -0.258211771266E+03   -0.11034E-03   -0.84966E-03  2166   0.320E-01    0.842E-02
DAV:   2    -0.258212233312E+03   -0.46205E-03   -0.24533E-03  2773   0.417E-01    0.331E-01
DAV:   3    -0.258211545155E+03    0.68816E-03   -0.15867E-03  2472   0.355E-01    0.111E-01
DAV:   4    -0.258211647812E+03   -0.10266E-03   -0.12996E-04  1572   0.609E-02    0.835E-02
DAV:   5    -0.258211648079E+03   -0.26696E-06   -0.15288E-04  1657   0.547E-02
  95 F= -.25821165E+03 E0= -.25820843E+03  d E =-.456759E-04  mag=    -0.0058
       N       E                     dE             d eps       ncg     rms          rms(c)
DAV:   1    -0.258211678347E+03   -0.30535E-04   -0.13819E-03  2328   0.130E-01    0.277E-02
DAV:   2    -0.258211753671E+03   -0.75324E-04   -0.14125E-04  1638   0.103E-01
  96 F= -.25821175E+03 E0= -.25820852E+03  d E =-.151267E-03  mag=    -0.0077
       N       E                     dE             d eps       ncg     rms          rms(c)
DAV:   1    -0.258211724862E+03   -0.46515E-04   -0.36752E-04  1968   0.108E-01    0.494E-02
DAV:   2    -0.258211610603E+03    0.11426E-03   -0.13952E-04  1507   0.630E-02    0.966E-02
DAV:   3    -0.258211745939E+03   -0.13534E-03   -0.11130E-04  1525   0.831E-02    0.146E-01
DAV:   4    -0.258211624353E+03    0.12159E-03   -0.41187E-04  1750   0.143E-01    0.271E-02
DAV:   5    -0.258211607892E+03    0.16460E-04   -0.77306E-05  1656   0.409E-02
  97 F= -.25821161E+03 E0= -.25820839E+03  d E =-.548909E-05  mag=     0.0027
       N       E                     dE             d eps       ncg     rms          rms(c)
DAV:   1    -0.258211769669E+03   -0.14532E-03   -0.80465E-03  2140   0.300E-01    0.295E-02
DAV:   2    -0.258211766854E+03    0.28142E-05   -0.17697E-04  1480   0.565E-02
  98 F= -.25821177E+03 E0= -.25820854E+03  d E =-.158962E-03  mag=     0.0053
       N       E                     dE             d eps       ncg     rms          rms(c)
DAV:   1    -0.258211750979E+03    0.18690E-04   -0.60769E-05  1387   0.601E-02    0.465E-02
DAV:   2    -0.258211819839E+03   -0.68860E-04   -0.66627E-04  2116   0.228E-01
  99 F= -.25821182E+03 E0= -.25820856E+03  d E =-.211947E-03  mag=     0.0104
       N       E                     dE             d eps       ncg     rms          rms(c)
DAV:   1    -0.258211626396E+03    0.12458E-03   -0.19819E-03  2806   0.217E-01    0.889E-02
DAV:   2    -0.258211667848E+03   -0.41452E-04   -0.15196E-03  2341   0.305E-01    0.293E-01
DAV:   3    -0.258211302107E+03    0.36574E-03   -0.41015E-04  2096   0.180E-01    0.202E-01
DAV:   4    -0.258211511187E+03   -0.20908E-03   -0.92394E-04  2076   0.145E-01    0.706E-02
DAV:   5    -0.258211702005E+03   -0.19082E-03   -0.15471E-04  1699   0.516E-02    0.208E-02
DAV:   6    -0.258211759348E+03   -0.57342E-04   -0.38153E-05  1536   0.288E-02
 100 F= -.25821176E+03 E0= -.25820852E+03  d E =0.604917E-04  mag=    -0.0031
       N       E                     dE             d eps       ncg     rms          rms(c)
DAV:   1    -0.258211801204E+03   -0.99199E-04   -0.32684E-05  1372   0.248E-02    0.146E-02
DAV:   2    -0.258211783238E+03    0.17967E-04   -0.16837E-05  1394   0.206E-02
 101 F= -.25821178E+03 E0= -.25820855E+03  d E =0.366020E-04  mag=    -0.0035
       N       E                     dE             d eps       ncg     rms          rms(c)
DAV:   1    -0.258211824413E+03   -0.23208E-04   -0.17683E-04  1418   0.535E-02    0.406E-02
DAV:   2    -0.258212024960E+03   -0.20055E-03   -0.92358E-04  2238   0.273E-01    0.210E-01
DAV:   3    -0.258211747394E+03    0.27757E-03   -0.58580E-04  2177   0.221E-01    0.558E-02
DAV:   4    -0.258211779255E+03   -0.31861E-04   -0.76576E-05  1534   0.463E-02
 102 F= -.25821178E+03 E0= -.25820854E+03  d E =0.398278E-05  mag=     0.0016
       N       E                     dE             d eps       ncg     rms          rms(c)
DAV:   1    -0.258211799230E+03   -0.51836E-04   -0.13251E-03  2303   0.125E-01    0.159E-02
DAV:   2    -0.258211832918E+03   -0.33688E-04   -0.56308E-05  1386   0.567E-02
 103 F= -.25821183E+03 E0= -.25820861E+03  d E =-.496804E-04  mag=     0.0021
       N       E                     dE             d eps       ncg     rms          rms(c)
DAV:   1    -0.258211829753E+03   -0.30523E-04   -0.44116E-05  1328   0.631E-02    0.164E-02
DAV:   2    -0.258211839212E+03   -0.94593E-05   -0.81003E-05  1424   0.887E-02
 104 F= -.25821184E+03 E0= -.25820863E+03  d E =-.559744E-04  mag=     0.0036
       N       E                     dE             d eps       ncg     rms          rms(c)
DAV:   1    -0.258211810553E+03    0.19200E-04   -0.50704E-05  1312   0.694E-02    0.274E-02
DAV:   2    -0.258211758426E+03    0.52127E-04   -0.77390E-05  1485   0.655E-02
 105 F= -.25821176E+03 E0= -.25820852E+03  d E =0.248117E-04  mag=     0.0068
