Beta12Borophene !The name of the system 
           1
    10.160000    0.000000    0.000000
     0.000000   11.760000    0.000000
     0.000000    0.000000   15.000000
   B    Fe
  40   1
Direct configuration=     1
   0.99811000  0.00000000  0.00000000
   0.16667000  0.00000000  0.00000000
   0.33522000  0.00000000  0.00000000
   0.08000000  0.12500000  0.00000000
   0.25334000  0.12500000  0.00000000
   0.99811000  0.25000000  0.00000000
   0.16667000  0.25000000  0.00000000
   0.33522000  0.25000000  0.00000000
   0.08000000  0.37500000  0.00000000
   0.25334000  0.37500000  0.00000000
   0.99811000  0.50000000  0.00000000
   0.16667000  0.50000000  0.00000000
   0.33522000  0.50000000  0.00000000
   0.08000000  0.62500000  0.00000000
   0.25334000  0.62500000  0.00000000
   0.99811000  0.75000000  0.00000000
   0.16667000  0.75000000  0.00000000
   0.33522000  0.75000000  0.00000000
   0.08000000  0.87500000  0.00000000
   0.25334000  0.87500000  0.00000000
   0.49811000  0.00000000  0.00000000
   0.66667000  0.00000000  0.00000000
   0.83522000  0.00000000  0.00000000
   0.58000000  0.12500000  0.00000000
   0.75334000  0.12500000  0.00000000
   0.49811000  0.25000000  0.00000000
   0.66667000  0.25000000  0.00000000
   0.83522000  0.25000000  0.00000000
   0.58000000  0.37500000  0.00000000
   0.75334000  0.37500000  0.00000000
   0.49811000  0.50000000  0.00000000
   0.66667000  0.50000000  0.00000000
   0.83522000  0.50000000  0.00000000
   0.58000000  0.62500000  0.00000000
   0.75334000  0.62500000  0.00000000
   0.49811000  0.75000000  0.00000000
   0.66667000  0.75000000  0.00000000
   0.83522000  0.75000000  0.00000000
   0.58000000  0.87500000  0.00000000
   0.75334000  0.87500000  0.00000000
   0.41667000  0.12500000  0.13333000
Direct configuration=     2
   0.99909729 -0.00027941 -0.00011755
   0.16456355 -0.00072442 -0.00009306
   0.33646317  0.00056401  0.00151425
   0.08020455  0.12500000  0.00034606
   0.25427446  0.12500000  0.00171441
   0.99909729  0.25027941 -0.00011755
   0.16456355  0.25072442 -0.00009306
   0.33646317  0.24943599  0.00151425
   0.08070212  0.37415062 -0.00017641
   0.25271958  0.37548752  0.00037537
   0.99811162  0.50028179 -0.00004787
   0.16671324  0.50025151  0.00002922
   0.33528183  0.49990184  0.00004168
   0.08043364  0.62500000  0.00015903
   0.25277502  0.62500000  0.00009127
   0.99811162  0.74971821 -0.00004787
   0.16671324  0.74974849  0.00002922
   0.33528183  0.75009816  0.00004168
   0.08070212  0.87584938 -0.00017641
   0.25271958  0.87451248  0.00037537
   0.49682068  0.00076742  0.00132132
   0.66878762 -0.00078559 -0.00011853
   0.83418774  0.00005069  0.00005978
   0.57862663  0.12500000  0.00187603
   0.75342248  0.12500000  0.00053716
   0.49682068  0.24923258  0.00132132
   0.66878762  0.25078559 -0.00011853
   0.83418774  0.24994931  0.00005978
   0.58079926  0.37540020  0.00028073
   0.75232235  0.37417165 -0.00011575
   0.49806553  0.50001258 -0.00000989
   0.66660740  0.50038755  0.00004273
   0.83520578  0.50037257 -0.00000370
   0.58066058  0.62500000  0.00009289
   0.75276183  0.62500000  0.00015858
   0.49806553  0.74998742 -0.00000989
   0.66660740  0.74961245  0.00004273
   0.83520578  0.74962743 -0.00000370
   0.58079926  0.87459980  0.00028073
   0.75232235  0.87582835 -0.00011575
   0.41733331  0.12500000  0.12238992
Direct configuration=     3
   0.00145070 -0.00094546 -0.00039775
   0.15954236 -0.00245124 -0.00031490
   0.33942654  0.00190845  0.00512379
   0.08069214  0.12500000  0.00117097
   0.25650196  0.12500000  0.00580108
   0.00145070  0.25094546 -0.00039775
   0.15954236  0.25245124 -0.00031490
   0.33942654  0.24809155  0.00512379
   0.08237578  0.37212594 -0.00059691
   0.25124067  0.37664965  0.00127016
   0.99811549  0.50095349 -0.00016199
   0.16681630  0.50085103  0.00009887
   0.33542923  0.49966786  0.00014102
   0.08146731  0.62500000  0.00053812
   0.25142827  0.62500000  0.00030882
   0.99811549  0.74904651 -0.00016199
   0.16681630  0.74914897  0.00009887
   0.33542923  0.75033214  0.00014102
   0.08237578  0.87787406 -0.00059691
   0.25124067  0.87335035  0.00127016
   0.49374730  0.00259674  0.00447096
   0.67383542 -0.00265822 -0.00040106
   0.83172711  0.00017152  0.00020229
   0.57535289  0.12500000  0.00634796
   0.75361907  0.12500000  0.00181762
   0.49374730  0.24740326  0.00447096
   0.67383542  0.25265822 -0.00040106
   0.83172711  0.24982848  0.00020229
   0.58270447  0.37635415  0.00094992
   0.74989655  0.37219710 -0.00039166
   0.49795952  0.50004256 -0.00003348
   0.66645817  0.50131137  0.00014459
   0.83517189  0.50126066 -0.00001250
   0.58223522  0.62500000  0.00031430
   0.75138365  0.62500000  0.00053660
   0.49795952  0.74995744 -0.00003348
   0.66645817  0.74868863  0.00014459
   0.83517189  0.74873934 -0.00001250
   0.58270447  0.87364585  0.00094992
   0.74989655  0.87780290 -0.00039166
   0.41891447  0.12500000  0.09631182
Direct configuration=     4
   0.00025855 -0.00060807 -0.00025581
   0.16208590 -0.00157650 -0.00020253
   0.33792541  0.00122741  0.00329533
   0.08044515  0.12500000  0.00075310
   0.25537359  0.12500000  0.00373092
   0.00025855  0.25060807 -0.00025581
   0.16208590  0.25157650 -0.00020253
   0.33792541  0.24877259  0.00329533
   0.08152797  0.37315157 -0.00038390
   0.25198983  0.37606096  0.00081689
   0.99811353  0.50061323 -0.00010418
   0.16676409  0.50054734  0.00006359
   0.33535456  0.49978639  0.00009070
   0.08094369  0.62500000  0.00034609
   0.25211049  0.62500000  0.00019861
   0.99811353  0.74938677 -0.00010418
   0.16676409  0.74945266  0.00006359
   0.33535456  0.75021361  0.00009070
   0.08152797  0.87684843 -0.00038390
   0.25198983  0.87393904  0.00081689
   0.49530416  0.00167007  0.00287547
   0.67127839 -0.00170961 -0.00025794
   0.83297357  0.00011031  0.00013010
   0.57701124  0.12500000  0.00408265
   0.75351948  0.12500000  0.00116899
   0.49530416  0.24832993  0.00287547
   0.67127839  0.25170961 -0.00025794
   0.83297357  0.24988969  0.00013010
   0.58173936  0.37587091  0.00061093
   0.75112537  0.37319733 -0.00025189
   0.49801322  0.50002737 -0.00002153
   0.66653376  0.50084340  0.00009299
   0.83518906  0.50081078 -0.00000804
   0.58143757  0.62500000  0.00020214
   0.75208178  0.62500000  0.00034511
   0.49801322  0.74997263 -0.00002153
   0.66653376  0.74915660  0.00009299
   0.83518906  0.74918922 -0.00000804
   0.58173936  0.87412909  0.00061093
   0.75112537  0.87680267 -0.00025189
   0.41811352  0.12500000  0.10952200
Direct configuration=     5
  -0.00034804 -0.00052785 -0.00031085
   0.16224228 -0.00149740 -0.00021697
   0.33740167  0.00119635  0.00392750
   0.08057907  0.12500000  0.00096311
   0.25546887  0.12500000  0.00448627
  -0.00034804  0.25052785 -0.00031085
   0.16224228  0.25149740 -0.00021697
   0.33740167  0.24880365  0.00392750
   0.08157574  0.37347438 -0.00047983
   0.25199926  0.37593255  0.00104411
   0.99803913  0.50059275 -0.00014124
   0.16678436  0.50059855  0.00007044
   0.33533224  0.49979679  0.00010835
   0.08100798  0.62500000  0.00044741
   0.25205542  0.62500000  0.00021794
   0.99803913  0.74940725 -0.00014124
   0.16678436  0.74940145  0.00007044
   0.33533224  0.75020321  0.00010835
   0.08157574  0.87652562 -0.00047983
   0.25199926  0.87406745  0.00104411
   0.49580584  0.00163306  0.00344642
   0.67110094 -0.00158940 -0.00028220
   0.83358054  0.00016109  0.00012374
   0.57693390  0.12500000  0.00487413
   0.75332082  0.12500000  0.00145117
   0.49580584  0.24836694  0.00344642
   0.67110094  0.25158940 -0.00028220
   0.83358054  0.24983891  0.00012374
   0.58169534  0.37576641  0.00080803
   0.75110952  0.37348790 -0.00032679
   0.49805230  0.50002558 -0.00001825
   0.66650169  0.50087534  0.00010255
   0.83524436  0.50078464 -0.00003472
   0.58145748  0.62500000  0.00022267
   0.75203529  0.62500000  0.00044780
   0.49805230  0.74997442 -0.00001825
   0.66650169  0.74912466  0.00010255
   0.83524436  0.74921536 -0.00003472
   0.58169534  0.87423359  0.00080803
   0.75110952  0.87651210 -0.00032679
   0.41829685  0.12500000  0.10457895
Direct configuration=     6
  -0.00216780 -0.00028719 -0.00047598
   0.16271139 -0.00126011 -0.00026031
   0.33583045  0.00110317  0.00582399
   0.08098082  0.12500000  0.00159316
   0.25575472  0.12500000  0.00675232
  -0.00216780  0.25028719 -0.00047598
   0.16271139  0.25126011 -0.00026031
   0.33583045  0.24889683  0.00582399
   0.08171905  0.37444282 -0.00076765
   0.25202753  0.37554733  0.00172575
   0.99781593  0.50053132 -0.00025241
   0.16684514  0.50075219  0.00009097
   0.33526528  0.49982800  0.00016131
   0.08120085  0.62500000  0.00075138
   0.25189021  0.62500000  0.00027592
   0.99781593  0.74946868 -0.00025241
   0.16684514  0.74924781  0.00009097
   0.33526528  0.75017200  0.00016131
   0.08171905  0.87555718 -0.00076765
   0.25202753  0.87445267  0.00172575
   0.49731087  0.00152200  0.00515928
   0.67056859 -0.00122874 -0.00035500
   0.83540145  0.00031343  0.00010466
   0.57670188  0.12500000  0.00724855
   0.75272481  0.12500000  0.00229773
   0.49731087  0.24847800  0.00515928
   0.67056859  0.25122874 -0.00035500
   0.83540145  0.24968657  0.00010466
   0.58156326  0.37545290  0.00139932
   0.75106199  0.37435961 -0.00055148
   0.49816953  0.50002019 -0.00000842
   0.66640547  0.50097115  0.00013123
   0.83541027  0.50070619 -0.00011476
   0.58151721  0.62500000  0.00028428
   0.75189581  0.62500000  0.00075585
   0.49816953  0.74997981 -0.00000842
   0.66640547  0.74902885  0.00013123
   0.83541027  0.74929381 -0.00011476
   0.58156326  0.87454710  0.00139932
   0.75106199  0.87564039 -0.00055148
   0.41884685  0.12500000  0.08974981
Direct configuration=     7
  -0.00256986 -0.00023401 -0.00051247
   0.16281504 -0.00120769 -0.00026989
   0.33548330  0.00108258  0.00624300
   0.08106959  0.12500000  0.00173236
   0.25581787  0.12500000  0.00725298
  -0.00256986  0.25023401 -0.00051247
   0.16281504  0.25120769 -0.00026989
   0.33548330  0.24891742  0.00624300
   0.08175071  0.37465678 -0.00083124
   0.25203378  0.37546222  0.00187636
   0.99776662  0.50051775 -0.00027697
   0.16685857  0.50078613  0.00009551
   0.33525048  0.49983489  0.00017301
   0.08124347  0.62500000  0.00081854
   0.25185371  0.62500000  0.00028872
   0.99776662  0.74948225 -0.00027697
   0.16685857  0.74921387  0.00009551
   0.33525048  0.75016511  0.00017301
   0.08175071  0.87534322 -0.00083124
   0.25203378  0.87453778  0.00187636
   0.49764340  0.00149747  0.00553772
   0.67045097 -0.00114906 -0.00037108
   0.83580376  0.00034709  0.00010044
   0.57665062  0.12500000  0.00777316
   0.75259313  0.12500000  0.00248477
   0.49764340  0.24850253  0.00553772
   0.67045097  0.25114906 -0.00037108
   0.83580376  0.24965291  0.00010044
   0.58153408  0.37538363  0.00152996
   0.75105149  0.37455221 -0.00060113
   0.49819543  0.50001901 -0.00000624
   0.66638421  0.50099232  0.00013757
   0.83544693  0.50068886 -0.00013245
   0.58153041  0.62500000  0.00029789
   0.75186500  0.62500000  0.00082391
   0.49819543  0.74998099 -0.00000624
   0.66638421  0.74900768  0.00013757
   0.83544693  0.74931114 -0.00013245
   0.58153408  0.87461637  0.00152996
   0.75105149  0.87544779 -0.00060113
   0.41896837  0.12500000  0.08647344
Direct configuration=     8
  -0.00253527 -0.00025311 -0.00056364
   0.16346197 -0.00096870 -0.00025797
   0.33458870 -0.00004279  0.00649894
   0.08097384  0.12500000  0.00187141
   0.25393188  0.12500000  0.00747228
  -0.00253527  0.25025311 -0.00056364
   0.16346197  0.25096870 -0.00025797
   0.33458870  0.25004279  0.00649894
   0.08125926  0.37494979 -0.00094836
   0.25243577  0.37507361  0.00201115
   0.99790449  0.50044789 -0.00031919
   0.16679124  0.50071824  0.00006614
   0.33532178  0.49996462  0.00019638
   0.08092806  0.62500000  0.00091010
   0.25223902  0.62500000  0.00031037
   0.99790449  0.74955211 -0.00031919
   0.16679124  0.74928176  0.00006614
   0.33532178  0.75003538  0.00019638
   0.08125926  0.87505021 -0.00094836
   0.25243577  0.87492639  0.00201115
   0.49864039  0.00008690  0.00571435
   0.66975392 -0.00086144 -0.00037945
   0.83581661  0.00018389  0.00002788
   0.57902897  0.12500000  0.00786697
   0.75249287  0.12500000  0.00266631
   0.49864039  0.24991310  0.00571435
   0.66975392  0.25086144 -0.00037945
   0.83581661  0.24981611  0.00002788
   0.58099927  0.37501052  0.00163271
   0.75168954  0.37487048 -0.00072205
   0.49811759  0.50006714  0.00001699
   0.66646017  0.50083105  0.00009943
   0.83530605  0.50055024 -0.00017671
   0.58107722  0.62500000  0.00033359
   0.75225236  0.62500000  0.00093846
   0.49811759  0.74993286  0.00001699
   0.66646017  0.74916895  0.00009943
   0.83530605  0.74944976 -0.00017671
   0.58099927  0.87498948  0.00163271
   0.75168954  0.87512952 -0.00072205
   0.41844281  0.12500000  0.08516729
Direct configuration=     9
  -0.00252444 -0.00025908 -0.00057964
   0.16366432 -0.00089395 -0.00025424
   0.33430889 -0.00039477  0.00657899
   0.08094389  0.12500000  0.00191490
   0.25334199  0.12500000  0.00754087
  -0.00252444  0.25025908 -0.00057964
   0.16366432  0.25089395 -0.00025424
   0.33430889  0.25039477  0.00657899
   0.08110554  0.37504144 -0.00098499
   0.25256150  0.37495206  0.00205331
   0.99794762  0.50042604 -0.00033239
   0.16677018  0.50069700  0.00005695
   0.33534408  0.50000520  0.00020369
   0.08082941  0.62500000  0.00093873
   0.25235954  0.62500000  0.00031714
   0.99794762  0.74957396 -0.00033239
   0.16677018  0.74930300  0.00005695
   0.33534408  0.74999480  0.00020369
   0.08110554  0.87495856 -0.00098499
   0.25256150  0.87504794  0.00205331
   0.49895223 -0.00035429  0.00576960
   0.66953590 -0.00077148 -0.00038207
   0.83582063  0.00013285  0.00000518
   0.57977285  0.12500000  0.00789631
   0.75246152  0.12500000  0.00272309
   0.49895223  0.25035429  0.00576960
   0.66953590  0.25077148 -0.00038207
   0.83582063  0.24986715  0.00000518
   0.58083199  0.37489382  0.00166484
   0.75188910  0.37497003 -0.00075987
   0.49809325  0.50008219  0.00002426
   0.66648392  0.50078061  0.00008750
   0.83526198  0.50050688 -0.00019056
   0.58093548  0.62500000  0.00034476
   0.75237351  0.62500000  0.00097429
   0.49809325  0.74991781  0.00002426
   0.66648392  0.74921939  0.00008750
   0.83526198  0.74949312 -0.00019056
   0.58083199  0.87510618  0.00166484
   0.75188910  0.87502997 -0.00075987
   0.41827843  0.12500000  0.08475877
Direct configuration=    10
  -0.00250280 -0.00027103 -0.00061165
   0.16406900 -0.00074445 -0.00024679
   0.33374927 -0.00109874  0.00673909
   0.08088399  0.12500000  0.00200188
   0.25216222  0.12500000  0.00767805
  -0.00250280  0.25027103 -0.00061165
   0.16406900  0.25074445 -0.00024679
   0.33374927  0.25109874  0.00673909
   0.08079812  0.37522473 -0.00105825
   0.25281295  0.37470897  0.00213763
   0.99803387  0.50038234 -0.00035879
   0.16672806  0.50065453  0.00003858
   0.33538868  0.50008634  0.00021831
   0.08063211  0.62500000  0.00099600
   0.25260057  0.62500000  0.00033068
   0.99803387  0.74961766 -0.00035879
   0.16672806  0.74934547  0.00003858
   0.33538868  0.74991366  0.00021831
   0.08079812  0.87477527 -0.00105825
   0.25281295  0.87529103  0.00213763
   0.49957589 -0.00123667  0.00588009
   0.66909986 -0.00059156 -0.00038731
   0.83582867  0.00003076 -0.00004021
   0.58126061  0.12500000  0.00795500
   0.75239880  0.12500000  0.00283665
   0.49957589  0.25123667  0.00588009
   0.66909986  0.25059156 -0.00038731
   0.83582867  0.24996924 -0.00004021
   0.58049744  0.37466042  0.00172912
   0.75228823  0.37516912 -0.00083551
   0.49804455  0.50011230  0.00003879
   0.66653144  0.50067972  0.00006364
   0.83517386  0.50042017 -0.00021825
   0.58065199  0.62500000  0.00036709
   0.75261583  0.62500000  0.00104595
   0.49804455  0.74988770  0.00003879
   0.66653144  0.74932028  0.00006364
   0.83517386  0.74957983 -0.00021825
   0.58049744  0.87533958  0.00172912
   0.75228823  0.87483088 -0.00083551
   0.41794967  0.12500000  0.08394172
Direct configuration=    11
  -0.00245952 -0.00029491 -0.00067567
   0.16487837 -0.00044545 -0.00023188
   0.33263005 -0.00250667  0.00705929
   0.08076420  0.12500000  0.00217585
   0.24980268  0.12500000  0.00795242
  -0.00245952  0.25029491 -0.00067567
   0.16487837  0.25044545 -0.00023188
   0.33263005  0.25250667  0.00705929
   0.08018327  0.37559131 -0.00120478
   0.25331587  0.37422278  0.00230627
   0.99820637  0.50029494 -0.00041161
   0.16664382  0.50056959  0.00000184
   0.33547789  0.50024864  0.00024755
   0.08023751  0.62500000  0.00111055
   0.25308262  0.62500000  0.00035777
   0.99820637  0.74970506 -0.00041161
   0.16664382  0.74943041  0.00000184
   0.33547789  0.74975136  0.00024755
   0.08018327  0.87440869 -0.00120478
   0.25331587  0.87577722  0.00230627
   0.50082322 -0.00300142  0.00610107
   0.66822779 -0.00023173 -0.00039779
   0.83584475 -0.00017342 -0.00013099
   0.58423614  0.12500000  0.00807236
   0.75227338  0.12500000  0.00306376
   0.50082322  0.25300142  0.00610107
   0.66822779  0.25023173 -0.00039779
   0.83584475  0.25017342 -0.00013099
   0.57982835  0.37419362  0.00185766
   0.75308648  0.37556731 -0.00098679
   0.49794717  0.50017252  0.00006786
   0.66662646  0.50047796  0.00001593
   0.83499760  0.50024674 -0.00027362
   0.58008501  0.62500000  0.00041176
   0.75310045  0.62500000  0.00118926
   0.49794717  0.74982748  0.00006786
   0.66662646  0.74952204  0.00001593
   0.83499760  0.74975326 -0.00027362
   0.57982835  0.87580638  0.00185766
   0.75308648  0.87443269 -0.00098679
   0.41729215  0.12500000  0.08230761
Direct configuration=    12
  -0.00248481 -0.00028096 -0.00063827
   0.16440545 -0.00062015 -0.00024059
   0.33328401 -0.00168401  0.00687219
   0.08083420  0.12500000  0.00207420
   0.25118136  0.12500000  0.00779211
  -0.00248481  0.25028096 -0.00063827
   0.16440545  0.25062015 -0.00024059
   0.33328401  0.25168401  0.00687219
   0.08054253  0.37537711 -0.00111916
   0.25302202  0.37450686  0.00220773
   0.99810558  0.50034601 -0.00038075
   0.16669304  0.50061922  0.00002331
   0.33542576  0.50015381  0.00023046
   0.08046808  0.62500000  0.00104362
   0.25280096  0.62500000  0.00034194
   0.99810558  0.74965399 -0.00038075
   0.16669304  0.74938078  0.00002331
   0.33542576  0.74984619  0.00023046
   0.08054253  0.87462289 -0.00111916
   0.25302202  0.87549314  0.00220773
   0.50009440 -0.00197027  0.00597195
   0.66873735 -0.00044198 -0.00039167
   0.83583535 -0.00005412 -0.00007795
   0.58249754  0.12500000  0.00800378
   0.75234667  0.12500000  0.00293106
   0.50009440  0.25197027  0.00597195
   0.66873735  0.25044198 -0.00039167
   0.83583535  0.25005412 -0.00007795
   0.58021930  0.37446637  0.00178255
   0.75262006  0.37533465 -0.00089840
   0.49800407  0.50013734  0.00005088
   0.66657094  0.50059585  0.00004381
   0.83510059  0.50034807 -0.00024127
   0.58041630  0.62500000  0.00038566
   0.75281728  0.62500000  0.00110552
   0.49800407  0.74986266  0.00005088
   0.66657094  0.74940415  0.00004381
   0.83510059  0.74965193 -0.00024127
   0.58021930  0.87553363  0.00178255
   0.75262006  0.87466535 -0.00089840
   0.41767634  0.12500000  0.08326242
Direct configuration=    13
  -0.00222768 -0.00038934 -0.00071371
   0.16412867 -0.00073198 -0.00028916
   0.33355833 -0.00216779  0.00712874
   0.08025362  0.12500000  0.00221195
   0.24993730  0.12500000  0.00799036
  -0.00222768  0.25038934 -0.00071371
   0.16412867  0.25073198 -0.00028916
   0.33355833  0.25216779  0.00712874
   0.08039597  0.37513372 -0.00122696
   0.25295186  0.37495175  0.00223658
   0.99808438  0.50038894 -0.00041548
   0.16674959  0.50049574 -0.00002219
   0.33542391  0.50017553  0.00027740
   0.08035942  0.62500000  0.00114229
   0.25290110  0.62500000  0.00042762
   0.99808438  0.74961106 -0.00041548
   0.16674959  0.74950426 -0.00002219
   0.33542391  0.74982447  0.00027740
   0.08039597  0.87486628 -0.00122696
   0.25295186  0.87504825  0.00223658
   0.49982519 -0.00241625  0.00623429
   0.66908768 -0.00063963 -0.00044295
   0.83555317 -0.00028507 -0.00017062
   0.58376747  0.12500000  0.00809533
   0.75296427  0.12500000  0.00307765
   0.49982519  0.25241625  0.00623429
   0.66908768  0.25063963 -0.00044295
   0.83555317  0.25028507 -0.00017062
   0.58028621  0.37496187  0.00178627
   0.75287369  0.37505816 -0.00101688
   0.49795070  0.50014483  0.00009780
   0.66650822  0.50044935 -0.00001139
   0.83514077  0.50034609 -0.00027761
   0.58032873  0.62500000  0.00047714
   0.75293388  0.62500000  0.00122674
   0.49795070  0.74985517  0.00009780
   0.66650822  0.74955065 -0.00001139
   0.83514077  0.74965391 -0.00027761
   0.58028621  0.87503813  0.00178627
   0.75287369  0.87494184 -0.00101688
   0.41736290  0.12500000  0.08233265
Direct configuration=    14
  -0.00199657 -0.00048676 -0.00078151
   0.16387990 -0.00083249 -0.00033282
   0.33380490 -0.00260262  0.00735933
   0.07973178  0.12500000  0.00233577
   0.24881913  0.12500000  0.00816855
  -0.00199657  0.25048676 -0.00078151
   0.16387990  0.25083249 -0.00033282
   0.33380490  0.25260262  0.00735933
   0.08026424  0.37491495 -0.00132385
   0.25288881  0.37535163  0.00226250
   0.99806533  0.50042752 -0.00044669
   0.16680041  0.50038474 -0.00006309
   0.33542224  0.50019505  0.00031959
   0.08026176  0.62500000  0.00123097
   0.25299111  0.62500000  0.00050464
   0.99806533  0.74957248 -0.00044669
   0.16680041  0.74961526 -0.00006309
   0.33542224  0.74980495  0.00031959
   0.08026424  0.87508505 -0.00132385
   0.25288881  0.87464837  0.00226250
   0.49958321 -0.00281710  0.00647009
   0.66940257 -0.00081728 -0.00048904
   0.83529954 -0.00049266 -0.00025392
   0.58490890  0.12500000  0.00817761
   0.75351938  0.12500000  0.00320940
   0.49958321  0.25281710  0.00647009
   0.66940257  0.25081728 -0.00048904
   0.83529954  0.25049266 -0.00025392
   0.58034634  0.37540723  0.00178962
   0.75310165  0.37480964 -0.00112337
   0.49790272  0.50015157  0.00013998
   0.66645185  0.50031767 -0.00006100
   0.83517689  0.50034430 -0.00031027
   0.58025002  0.62500000  0.00055936
   0.75303869  0.62500000  0.00133570
   0.49790272  0.74984843  0.00013998
   0.66645185  0.74968233 -0.00006100
   0.83517689  0.74965570 -0.00031027
   0.58034634  0.87459277  0.00178962
   0.75310165  0.87519036 -0.00112337
   0.41708117  0.12500000  0.08149697
Direct configuration=    15
  -0.00153436 -0.00068160 -0.00091713
   0.16338235 -0.00103352 -0.00042015
   0.33429803 -0.00347227  0.00782051
   0.07868812  0.12500000  0.00258340
   0.24658277  0.12500000  0.00852494
  -0.00153436  0.25068160 -0.00091713
   0.16338235  0.25103352 -0.00042015
   0.33429803  0.25347227  0.00782051
   0.08000078  0.37447741 -0.00151764
   0.25276271  0.37615138  0.00231435
   0.99802723  0.50050469 -0.00050913
   0.16690206  0.50016276 -0.00014489
   0.33541889  0.50023410  0.00040397
   0.08006644  0.62500000  0.00140834
   0.25317113  0.62500000  0.00065867
   0.99802723  0.74949531 -0.00050913
   0.16690206  0.74983724 -0.00014489
   0.33541889  0.74976590  0.00040397
   0.08000078  0.87552259 -0.00151764
   0.25276271  0.87384862  0.00231435
   0.49909926 -0.00361880  0.00694168
   0.67003235 -0.00117257 -0.00058123
   0.83479229 -0.00090783 -0.00042053
   0.58719177  0.12500000  0.00834217
   0.75462960  0.12500000  0.00347292
   0.49909926  0.25361880  0.00694168
   0.67003235  0.25117257 -0.00058123
   0.83479229  0.25090783 -0.00042053
   0.58046661  0.37629795  0.00179631
   0.75355758  0.37431262 -0.00133636
   0.49780678  0.50016504  0.00022433
   0.66633910  0.50005432 -0.00016022
   0.83524912  0.50034074 -0.00037559
   0.58009260  0.62500000  0.00072380
   0.75324830  0.62500000  0.00155360
   0.49780678  0.74983496  0.00022433
   0.66633910  0.74994568 -0.00016022
   0.83524912  0.74965926 -0.00037559
   0.58046661  0.87370205  0.00179631
   0.75355758  0.87568738 -0.00133636
   0.41651773  0.12500000  0.07982559
Direct configuration=    16
  -0.00181795 -0.00056206 -0.00083392
   0.16368762 -0.00091018 -0.00036657
   0.33399547 -0.00293870  0.00753756
   0.07932845  0.12500000  0.00243147
   0.24795487  0.12500000  0.00830628
  -0.00181795  0.25056206 -0.00083392
   0.16368762  0.25091018 -0.00036657
   0.33399547  0.25293870  0.00753756
   0.08016242  0.37474586 -0.00139874
   0.25284008  0.37566070  0.00228254
   0.99805060  0.50045735 -0.00047082
   0.16683970  0.50029896 -0.00009470
   0.33542094  0.50021014  0.00035220
   0.08018628  0.62500000  0.00129951
   0.25306068  0.62500000  0.00056416
   0.99805060  0.74954265 -0.00047082
   0.16683970  0.74970104 -0.00009470
   0.33542094  0.74978986  0.00035220
   0.08016242  0.87525414 -0.00139874
   0.25284008  0.87433930  0.00228254
   0.49939619 -0.00312692  0.00665234
   0.66964595 -0.00095458 -0.00052467
   0.83510351 -0.00065311 -0.00031831
   0.58579114  0.12500000  0.00824121
   0.75394843  0.12500000  0.00331124
   0.49939619  0.25312692  0.00665234
   0.66964595  0.25095458 -0.00052467
   0.83510351  0.25065311 -0.00031831
   0.58039282  0.37575146  0.00179220
   0.75327785  0.37461756 -0.00120569
   0.49786564  0.50015677  0.00017258
   0.66640827  0.50021590 -0.00009934
   0.83520480  0.50034293 -0.00033551
   0.58018918  0.62500000  0.00062291
   0.75311969  0.62500000  0.00141991
   0.49786564  0.74984323  0.00017258
   0.66640827  0.74978410 -0.00009934
   0.83520480  0.74965707 -0.00033551
   0.58039282  0.87424854  0.00179220
   0.75327785  0.87538244 -0.00120569
   0.41686343  0.12500000  0.08085105
Direct configuration=    17
  -0.00246065 -0.00071004 -0.00098935
   0.16335131 -0.00114002 -0.00045478
   0.33393199 -0.00327154  0.00795826
   0.07848355  0.12500000  0.00260677
   0.24730847  0.12500000  0.00882206
  -0.00246065  0.25071004 -0.00098935
   0.16335131  0.25114002 -0.00045478
   0.33393199  0.25327154  0.00795826
   0.08020868  0.37479048 -0.00157899
   0.25254406  0.37599963  0.00225110
   0.99798347  0.50043963 -0.00052184
   0.16681420  0.50037378 -0.00018063
   0.33535912  0.50038333  0.00043570
   0.08032207  0.62500000  0.00145599
   0.25294150  0.62500000  0.00075709
   0.99798347  0.74956037 -0.00052184
   0.16681420  0.74962622 -0.00018063
   0.33535912  0.74961667  0.00043570
   0.08020868  0.87520952 -0.00157899
   0.25254406  0.87400037  0.00225110
   0.49946688 -0.00328098  0.00711144
   0.67001952 -0.00121269 -0.00060202
   0.83579410 -0.00082199 -0.00048672
   0.58615029  0.12500000  0.00862804
   0.75493676  0.12500000  0.00348863
   0.49946688  0.25328098  0.00711144
   0.67001952  0.25121269 -0.00060202
   0.83579410  0.25082199 -0.00048672
   0.58072194  0.37609481  0.00173337
   0.75327548  0.37473178 -0.00140392
   0.49789263  0.50036311  0.00024713
   0.66641913  0.50031862 -0.00019843
   0.83531123  0.50031822 -0.00038667
   0.58034886  0.62500000  0.00081916
   0.75296705  0.62500000  0.00160075
   0.49789263  0.74963689  0.00024713
   0.66641913  0.74968138 -0.00019843
   0.83531123  0.74968178 -0.00038667
   0.58072194  0.87390519  0.00173337
   0.75327548  0.87526822 -0.00140392
   0.41666527  0.12500000  0.07928425
Direct configuration=    18
  -0.00379641 -0.00101761 -0.00131240
   0.16265235 -0.00161772 -0.00063811
   0.33380004 -0.00396330  0.00883261
   0.07672755  0.12500000  0.00297109
   0.24596503  0.12500000  0.00989404
  -0.00379641  0.25101761 -0.00131240
   0.16265235  0.25161772 -0.00063811
   0.33380004  0.25396330  0.00883261
   0.08030482  0.37488320 -0.00195362
   0.25192881  0.37670404  0.00218574
   0.99784393  0.50040282 -0.00062787
   0.16676121  0.50052930 -0.00035921
   0.33523063  0.50074326  0.00060926
   0.08060429  0.62500000  0.00178119
   0.25269379  0.62500000  0.00115806
   0.99784393  0.74959718 -0.00062787
   0.16676121  0.74947070 -0.00035921
   0.33523063  0.74925674  0.00060926
   0.08030482  0.87511680 -0.00195362
   0.25192881  0.87329596  0.00218574
   0.49961380 -0.00360118  0.00806562
   0.67079593 -0.00174914 -0.00076277
   0.83722940 -0.00117300 -0.00083675
   0.58689674  0.12500000  0.00943201
   0.75699085  0.12500000  0.00385731
   0.49961380  0.25360118  0.00806562
   0.67079593  0.25174914 -0.00076277
   0.83722940  0.25117300 -0.00083675
   0.58140597  0.37680841  0.00161110
   0.75327055  0.37496916 -0.00181593
   0.49794873  0.50079195  0.00040207
   0.66644168  0.50053211 -0.00040438
   0.83553244  0.50026687 -0.00049298
   0.58068073  0.62500000  0.00122703
   0.75264981  0.62500000  0.00197660
   0.49794873  0.74920805  0.00040207
   0.66644168  0.74946789 -0.00040438
   0.83553244  0.74973313 -0.00049298
   0.58140597  0.87319159  0.00161110
   0.75327055  0.87503084 -0.00181593
   0.41625344  0.12500000  0.07602789
Direct configuration=    19
  -0.00377308 -0.00115973 -0.00147264
   0.16230924 -0.00166910 -0.00069495
   0.33343369 -0.00425514  0.00921806
   0.07629528  0.12500000  0.00308564
   0.24547262  0.12500000  0.01041578
  -0.00377308  0.25115973 -0.00147264
   0.16230924  0.25166910 -0.00069495
   0.33343369  0.25425514  0.00921806
   0.08028659  0.37507677 -0.00212386
   0.25175587  0.37669179  0.00210183
   0.99785048  0.50040832 -0.00066773
   0.16665763  0.50071524 -0.00043433
   0.33525743  0.50089455  0.00068284
   0.08067656  0.62500000  0.00190648
   0.25254823  0.62500000  0.00135366
   0.99785048  0.74959168 -0.00066773
   0.16665763  0.74928476 -0.00043433
   0.33525743  0.74910545  0.00068284
   0.08028659  0.87492323 -0.00212386
   0.25175587  0.87330821  0.00210183
   0.50001448 -0.00380248  0.00846391
   0.67112444 -0.00177100 -0.00080612
   0.83724747 -0.00130240 -0.00099255
   0.58725508  0.12500000  0.00984768
   0.75746531  0.12500000  0.00397007
   0.50001448  0.25380248  0.00846391
   0.67112444  0.25177100 -0.00080612
   0.83724747  0.25130240 -0.00099255
   0.58158280  0.37675774  0.00152085
   0.75327151  0.37519044 -0.00200100
   0.49792840  0.50096358  0.00046671
   0.66654403  0.50074458 -0.00048875