   2   2   0   0
  0.8961120E+03  0.1016000E-08  0.1176000E-08  0.1500000E-08  0.5000000E-15
  1.000000000000000E-004
  CAR 
 Beta12Borophene !The name of the system 
      2.58960269    -34.20713579  301     -6.85121397      1.00000000
    -34.207  0.0000E+00  0.0000E+00  0.0000E+00  0.0000E+00
    -34.084  0.0000E+00  0.0000E+00  0.0000E+00  0.0000E+00
    -33.962  0.0000E+00  0.0000E+00  0.0000E+00  0.0000E+00
    -33.839  0.0000E+00  0.0000E+00  0.0000E+00  0.0000E+00
    -33.717  0.0000E+00  0.0000E+00  0.0000E+00  0.0000E+00
    -33.594  0.0000E+00  0.0000E+00  0.0000E+00  0.0000E+00
    -33.471  0.0000E+00  0.0000E+00  0.0000E+00  0.0000E+00
    -33.349 -0.3131E-30  0.0000E+00 -0.3840E-31  0.0000E+00
    -33.226 -0.2777E-22  0.0000E+00 -0.3406E-23  0.0000E+00
    -33.103 -0.1141E-15  0.0000E+00 -0.1400E-16  0.0000E+00
    -32.981 -0.2233E-10  0.0000E+00 -0.2739E-11  0.0000E+00
    -32.858 -0.1941E-06  0.0000E+00 -0.2381E-07  0.0000E+00
    -32.735 -0.6347E-04  0.0000E+00 -0.7808E-05  0.0000E+00
    -32.613  0.1864E-03  0.0000E+00  0.1505E-04  0.0000E+00
    -32.490  0.6717E-02  0.0000E+00  0.8389E-03  0.0000E+00
    -32.367  0.1474E-02  0.0000E+00  0.1020E-02  0.0000E+00
    -32.245 -0.1598E-03  0.0000E+00  0.1000E-02  0.0000E+00
    -32.122 -0.1324E-05 -0.4563E-30  0.1000E-02 -0.5597E-31
    -31.999 -0.3631E-09 -0.3820E-22  0.1000E-02 -0.4686E-23
    -31.877 -0.4313E-14 -0.1483E-15  0.1000E-02 -0.1819E-16
    -31.754  0.0000E+00 -0.2733E-10  0.1000E-02 -0.3352E-11
    -31.631  0.0000E+00 -0.2236E-06  0.1000E-02 -0.2743E-07
    -31.509  0.0000E+00 -0.6840E-04  0.1000E-02 -0.8418E-05
    -31.386  0.0000E+00  0.2453E-03  0.1000E-02  0.2167E-04
    -31.263  0.0000E+00  0.6775E-02  0.1000E-02  0.8527E-03
    -31.141  0.0000E+00  0.1354E-02  0.1000E-02  0.1019E-02
    -31.018  0.0000E+00 -0.1516E-03  0.1000E-02  0.1000E-02
    -30.895  0.0000E+00 -0.1168E-05  0.1000E-02  0.1000E-02
    -30.773  0.0000E+00 -0.3012E-09  0.1000E-02  0.1000E-02
    -30.650  0.0000E+00 -0.3373E-14  0.1000E-02  0.1000E-02
    -30.527  0.0000E+00  0.0000E+00  0.1000E-02  0.1000E-02
    -30.405  0.0000E+00  0.0000E+00  0.1000E-02  0.1000E-02
    -30.282  0.0000E+00  0.0000E+00  0.1000E-02  0.1000E-02
    -30.159  0.0000E+00  0.0000E+00  0.1000E-02  0.1000E-02
    -30.037  0.0000E+00  0.0000E+00  0.1000E-02  0.1000E-02
    -29.914  0.0000E+00  0.0000E+00  0.1000E-02  0.1000E-02
    -29.792  0.0000E+00  0.0000E+00  0.1000E-02  0.1000E-02
    -29.669  0.0000E+00  0.0000E+00  0.1000E-02  0.1000E-02
    -29.546  0.0000E+00  0.0000E+00  0.1000E-02  0.1000E-02
    -29.424  0.0000E+00  0.0000E+00  0.1000E-02  0.1000E-02
    -29.301  0.0000E+00  0.0000E+00  0.1000E-02  0.1000E-02
    -29.178  0.0000E+00  0.0000E+00  0.1000E-02  0.1000E-02
    -29.056  0.0000E+00  0.0000E+00  0.1000E-02  0.1000E-02
    -28.933  0.0000E+00  0.0000E+00  0.1000E-02  0.1000E-02
    -28.810  0.0000E+00  0.0000E+00  0.1000E-02  0.1000E-02
    -28.688  0.0000E+00  0.0000E+00  0.1000E-02  0.1000E-02
    -28.565  0.0000E+00  0.0000E+00  0.1000E-02  0.1000E-02
    -28.442  0.0000E+00  0.0000E+00  0.1000E-02  0.1000E-02
    -28.320  0.0000E+00  0.0000E+00  0.1000E-02  0.1000E-02
    -28.197  0.0000E+00  0.0000E+00  0.1000E-02  0.1000E-02
    -28.074  0.0000E+00  0.0000E+00  0.1000E-02  0.1000E-02
    -27.952  0.0000E+00  0.0000E+00  0.1000E-02  0.1000E-02
    -27.829  0.0000E+00  0.0000E+00  0.1000E-02  0.1000E-02
    -27.706  0.0000E+00  0.0000E+00  0.1000E-02  0.1000E-02
    -27.584  0.0000E+00  0.0000E+00  0.1000E-02  0.1000E-02
    -27.461  0.0000E+00  0.0000E+00  0.1000E-02  0.1000E-02
    -27.338  0.0000E+00  0.0000E+00  0.1000E-02  0.1000E-02
    -27.216  0.0000E+00  0.0000E+00  0.1000E-02  0.1000E-02
    -27.093  0.0000E+00  0.0000E+00  0.1000E-02  0.1000E-02
    -26.970  0.0000E+00  0.0000E+00  0.1000E-02  0.1000E-02
    -26.848  0.0000E+00  0.0000E+00  0.1000E-02  0.1000E-02
    -26.725  0.0000E+00  0.0000E+00  0.1000E-02  0.1000E-02
    -26.602  0.0000E+00  0.0000E+00  0.1000E-02  0.1000E-02
    -26.480  0.0000E+00  0.0000E+00  0.1000E-02  0.1000E-02
    -26.357  0.0000E+00  0.0000E+00  0.1000E-02  0.1000E-02
    -26.235  0.0000E+00  0.0000E+00  0.1000E-02  0.1000E-02
    -26.112  0.0000E+00  0.0000E+00  0.1000E-02  0.1000E-02
    -25.989  0.0000E+00  0.0000E+00  0.1000E-02  0.1000E-02
    -25.867  0.0000E+00  0.0000E+00  0.1000E-02  0.1000E-02
    -25.744  0.0000E+00  0.0000E+00  0.1000E-02  0.1000E-02
    -25.621  0.0000E+00  0.0000E+00  0.1000E-02  0.1000E-02
    -25.499  0.0000E+00  0.0000E+00  0.1000E-02  0.1000E-02
    -25.376  0.0000E+00  0.0000E+00  0.1000E-02  0.1000E-02
    -25.253  0.0000E+00  0.0000E+00  0.1000E-02  0.1000E-02
    -25.131  0.0000E+00  0.0000E+00  0.1000E-02  0.1000E-02
    -25.008  0.0000E+00  0.0000E+00  0.1000E-02  0.1000E-02
    -24.885  0.0000E+00  0.0000E+00  0.1000E-02  0.1000E-02
    -24.763  0.0000E+00  0.0000E+00  0.1000E-02  0.1000E-02
    -24.640  0.0000E+00  0.0000E+00  0.1000E-02  0.1000E-02
    -24.517  0.0000E+00  0.0000E+00  0.1000E-02  0.1000E-02
    -24.395  0.0000E+00  0.0000E+00  0.1000E-02  0.1000E-02
    -24.272  0.0000E+00  0.0000E+00  0.1000E-02  0.1000E-02
    -24.149  0.0000E+00  0.0000E+00  0.1000E-02  0.1000E-02
    -24.027  0.0000E+00  0.0000E+00  0.1000E-02  0.1000E-02
    -23.904  0.0000E+00  0.0000E+00  0.1000E-02  0.1000E-02
    -23.781  0.0000E+00  0.0000E+00  0.1000E-02  0.1000E-02
    -23.659  0.0000E+00  0.0000E+00  0.1000E-02  0.1000E-02
    -23.536  0.0000E+00  0.0000E+00  0.1000E-02  0.1000E-02
    -23.413  0.0000E+00  0.0000E+00  0.1000E-02  0.1000E-02
    -23.291  0.0000E+00  0.0000E+00  0.1000E-02  0.1000E-02
    -23.168  0.0000E+00  0.0000E+00  0.1000E-02  0.1000E-02
    -23.045  0.0000E+00  0.0000E+00  0.1000E-02  0.1000E-02
    -22.923  0.0000E+00  0.0000E+00  0.1000E-02  0.1000E-02
    -22.800  0.0000E+00  0.0000E+00  0.1000E-02  0.1000E-02
    -22.677  0.0000E+00  0.0000E+00  0.1000E-02  0.1000E-02
    -22.555  0.0000E+00  0.0000E+00  0.1000E-02  0.1000E-02
    -22.432  0.0000E+00  0.0000E+00  0.1000E-02  0.1000E-02
    -22.310  0.0000E+00  0.0000E+00  0.1000E-02  0.1000E-02
    -22.187  0.0000E+00  0.0000E+00  0.1000E-02  0.1000E-02
    -22.064  0.0000E+00  0.0000E+00  0.1000E-02  0.1000E-02
    -21.942  0.0000E+00  0.0000E+00  0.1000E-02  0.1000E-02
    -21.819  0.0000E+00  0.0000E+00  0.1000E-02  0.1000E-02
    -21.696  0.0000E+00  0.0000E+00  0.1000E-02  0.1000E-02
    -21.574  0.0000E+00  0.0000E+00  0.1000E-02  0.1000E-02
    -21.451 -0.2379E-31  0.0000E+00  0.1000E-02  0.1000E-02
    -21.328 -0.3119E-23  0.0000E+00  0.1000E-02  0.1000E-02
    -21.206 -0.1912E-16  0.0000E+00  0.1000E-02  0.1000E-02
    -21.083 -0.5529E-11  0.0000E+00  0.1000E-02  0.1000E-02
    -20.960 -0.7210E-07  0.0000E+00  0.1000E-02  0.1000E-02
    -20.838 -0.3680E-04  0.0000E+00  0.9955E-03  0.1000E-02
    -20.715 -0.1061E-03  0.0000E+00  0.9825E-03  0.1000E-02
    -20.592  0.6117E-02  0.0000E+00  0.1733E-02  0.1000E-02
    -20.470  0.2399E-02  0.0000E+00  0.2027E-02  0.1000E-02
    -20.347 -0.2171E-03  0.0000E+00  0.2000E-02  0.1000E-02
    -20.224 -0.3008E-05  0.0000E+00  0.2000E-02  0.1000E-02
    -20.102 -0.1248E-08  0.0000E+00  0.2000E-02  0.1000E-02
    -19.979 -0.2210E-13  0.0000E+00  0.2000E-02  0.1000E-02
    -19.856  0.0000E+00  0.0000E+00  0.2000E-02  0.1000E-02
    -19.734  0.0000E+00 -0.2936E-37  0.2000E-02  0.1000E-02
    -19.611  0.0000E+00 -0.2699E-28  0.2000E-02  0.1000E-02
    -19.488  0.0000E+00 -0.1195E-20  0.2000E-02  0.1000E-02
    -19.366  0.0000E+00 -0.2436E-14  0.2000E-02  0.1000E-02
    -19.243  0.0000E+00 -0.2350E-09  0.2000E-02  0.1000E-02
    -19.120  0.0000E+00 -0.9872E-06  0.2000E-02  0.9999E-03
    -18.998  0.0000E+00 -0.1409E-03  0.2000E-02  0.9826E-03
    -18.875  0.0000E+00  0.1201E-02  0.2000E-02  0.1130E-02
    -18.753  0.0000E+00  0.6839E-02  0.2000E-02  0.1969E-02
    -18.630  0.0000E+00  0.3299E-03  0.2000E-02  0.2009E-02
    -18.507  0.0000E+00 -0.7534E-04  0.2000E-02  0.2000E-02
    -18.385  0.0000E+00 -0.2691E-06  0.2000E-02  0.2000E-02
    -18.262  0.0000E+00 -0.3560E-10  0.2000E-02  0.2000E-02
    -18.139  0.0000E+00 -0.2082E-15  0.2000E-02  0.2000E-02
    -18.017  0.0000E+00  0.0000E+00  0.2000E-02  0.2000E-02
    -17.894  0.0000E+00  0.0000E+00  0.2000E-02  0.2000E-02
    -17.771  0.0000E+00  0.0000E+00  0.2000E-02  0.2000E-02
    -17.649  0.0000E+00  0.0000E+00  0.2000E-02  0.2000E-02
    -17.526  0.0000E+00  0.0000E+00  0.2000E-02  0.2000E-02
    -17.403  0.0000E+00  0.0000E+00  0.2000E-02  0.2000E-02
    -17.281  0.0000E+00  0.0000E+00  0.2000E-02  0.2000E-02
    -17.158  0.0000E+00  0.0000E+00  0.2000E-02  0.2000E-02
    -17.035  0.0000E+00  0.0000E+00  0.2000E-02  0.2000E-02
    -16.913  0.0000E+00  0.0000E+00  0.2000E-02  0.2000E-02
    -16.790  0.0000E+00  0.0000E+00  0.2000E-02  0.2000E-02
    -16.667  0.0000E+00  0.0000E+00  0.2000E-02  0.2000E-02
    -16.545  0.0000E+00  0.0000E+00  0.2000E-02  0.2000E-02
    -16.422  0.0000E+00  0.0000E+00  0.2000E-02  0.2000E-02
    -16.299  0.0000E+00  0.0000E+00  0.2000E-02  0.2000E-02
    -16.177  0.0000E+00  0.0000E+00  0.2000E-02  0.2000E-02
    -16.054  0.0000E+00  0.0000E+00  0.2000E-02  0.2000E-02
    -15.931  0.0000E+00  0.0000E+00  0.2000E-02  0.2000E-02
    -15.809  0.0000E+00  0.0000E+00  0.2000E-02  0.2000E-02
    -15.686  0.0000E+00  0.0000E+00  0.2000E-02  0.2000E-02
    -15.563  0.0000E+00  0.0000E+00  0.2000E-02  0.2000E-02
    -15.441  0.0000E+00  0.0000E+00  0.2000E-02  0.2000E-02
    -15.318  0.0000E+00  0.0000E+00  0.2000E-02  0.2000E-02
    -15.195  0.0000E+00  0.0000E+00  0.2000E-02  0.2000E-02
    -15.073  0.0000E+00  0.0000E+00  0.2000E-02  0.2000E-02
    -14.950  0.0000E+00  0.0000E+00  0.2000E-02  0.2000E-02
    -14.828  0.0000E+00  0.0000E+00  0.2000E-02  0.2000E-02
    -14.705  0.0000E+00  0.0000E+00  0.2000E-02  0.2000E-02
    -14.582  0.0000E+00  0.0000E+00  0.2000E-02  0.2000E-02
    -14.460  0.0000E+00  0.0000E+00  0.2000E-02  0.2000E-02
    -14.337  0.0000E+00  0.0000E+00  0.2000E-02  0.2000E-02
    -14.214 -0.5195E-30  0.0000E+00  0.2000E-02  0.2000E-02
    -14.092 -0.4263E-22  0.0000E+00  0.2000E-02  0.2000E-02
    -13.969 -0.1622E-15  0.0000E+00  0.2000E-02  0.2000E-02
    -13.846 -0.2929E-10  0.0000E+00  0.2000E-02  0.2000E-02
    -13.724 -0.2348E-06  0.0000E+00  0.2000E-02  0.2000E-02
    -13.601 -0.7038E-04  0.0000E+00  0.1991E-02  0.2000E-02
    -13.478  0.1767E-03  0.0000E+00  0.2013E-02  0.2000E-02
    -13.356  0.6749E-02 -0.5180E-35  0.2841E-02  0.2000E-02
    -13.233  0.1405E-01 -0.2320E-26  0.4564E-02  0.2000E-02
    -13.110  0.3954E-02 -0.4992E-19  0.5049E-02  0.2000E-02
    -12.988 -0.3950E-03 -0.4910E-13  0.5001E-02  0.2000E-02
    -12.865 -0.4528E-05 -0.2270E-08  0.5000E-02  0.2000E-02
    -12.742 -0.1621E-08 -0.4440E-05  0.5000E-02  0.1999E-02
    -12.620 -0.2493E-13 -0.2435E-03  0.5000E-02  0.1970E-02
    -12.497  0.0000E+00  0.2918E-02  0.5000E-02  0.2327E-02
    -12.374  0.0000E+00  0.5702E-02  0.5000E-02  0.3027E-02
    -12.252  0.0000E+00 -0.1917E-03  0.5000E-02  0.3003E-02
    -12.129  0.0000E+00 -0.2735E-04  0.5000E-02  0.3000E-02
    -12.006  0.0000E+00 -0.4306E-07  0.5000E-02  0.3000E-02
    -11.884  0.0000E+00 -0.1170E-10  0.5000E-02  0.3000E-02
    -11.761  0.0000E+00 -0.1239E-06  0.5000E-02  0.3000E-02
    -11.638  0.0000E+00 -0.6730E-04  0.5000E-02  0.2992E-02
    -11.516  0.0000E+00 -0.2712E-03  0.5000E-02  0.2958E-02
    -11.393  0.0000E+00  0.1198E-01  0.5000E-02  0.4428E-02
    -11.271  0.0000E+00  0.5122E-02  0.5000E-02  0.5056E-02
    -11.148  0.0000E+00 -0.4515E-03  0.5000E-02  0.5001E-02
    -11.025  0.0000E+00 -0.6853E-05  0.5000E-02  0.5000E-02
    -10.903  0.0000E+00 -0.3061E-08  0.5000E-02  0.5000E-02
    -10.780  0.0000E+00 -0.5840E-13  0.5000E-02  0.5000E-02
    -10.657  0.0000E+00  0.0000E+00  0.5000E-02  0.5000E-02
    -10.535  0.0000E+00  0.0000E+00  0.5000E-02  0.5000E-02
    -10.412  0.0000E+00  0.0000E+00  0.5000E-02  0.5000E-02
    -10.289  0.0000E+00  0.0000E+00  0.5000E-02  0.5000E-02
    -10.167  0.0000E+00  0.0000E+00  0.5000E-02  0.5000E-02
    -10.044  0.0000E+00  0.0000E+00  0.5000E-02  0.5000E-02
     -9.921  0.0000E+00  0.0000E+00  0.5000E-02  0.5000E-02
     -9.799  0.0000E+00  0.0000E+00  0.5000E-02  0.5000E-02
     -9.676  0.0000E+00  0.0000E+00  0.5000E-02  0.5000E-02
     -9.553  0.0000E+00  0.0000E+00  0.5000E-02  0.5000E-02
     -9.431  0.0000E+00  0.0000E+00  0.5000E-02  0.5000E-02
     -9.308  0.0000E+00  0.0000E+00  0.5000E-02  0.5000E-02
     -9.185  0.0000E+00  0.0000E+00  0.5000E-02  0.5000E-02
     -9.063  0.0000E+00  0.0000E+00  0.5000E-02  0.5000E-02
     -8.940  0.0000E+00  0.0000E+00  0.5000E-02  0.5000E-02
     -8.817  0.0000E+00  0.0000E+00  0.5000E-02  0.5000E-02
     -8.695  0.0000E+00  0.0000E+00  0.5000E-02  0.5000E-02
     -8.572  0.0000E+00  0.0000E+00  0.5000E-02  0.5000E-02
     -8.449  0.0000E+00  0.0000E+00  0.5000E-02  0.5000E-02
     -8.327  0.0000E+00  0.0000E+00  0.5000E-02  0.5000E-02
     -8.204  0.0000E+00  0.0000E+00  0.5000E-02  0.5000E-02
     -8.081  0.0000E+00  0.0000E+00  0.5000E-02  0.5000E-02
     -7.959  0.0000E+00  0.0000E+00  0.5000E-02  0.5000E-02
     -7.836 -0.2433E-36  0.0000E+00  0.5000E-02  0.5000E-02
     -7.713 -0.1838E-27  0.0000E+00  0.5000E-02  0.5000E-02
     -7.591 -0.6685E-20  0.0000E+00  0.5000E-02  0.5000E-02
     -7.468 -0.1118E-13  0.0000E+00  0.5000E-02  0.5000E-02
     -7.346 -0.8835E-09  0.0000E+00  0.5000E-02  0.5000E-02
     -7.223 -0.3021E-05  0.0000E+00  0.5000E-02  0.5000E-02
     -7.100 -0.3372E-03  0.0000E+00  0.4958E-02  0.5000E-02
     -6.978  0.3212E-02  0.0000E+00  0.5352E-02  0.5000E-02
     -6.855  0.1329E-01  0.0000E+00  0.6983E-02  0.5000E-02
     -6.732  0.2587E-03  0.0000E+00  0.7014E-02  0.5000E-02
     -6.610 -0.1172E-03  0.0000E+00  0.7000E-02  0.5000E-02
     -6.487 -0.3344E-06  0.0000E+00  0.7000E-02  0.5000E-02
     -6.364 -0.3617E-10  0.0000E+00  0.7000E-02  0.5000E-02
     -6.242 -0.1754E-15  0.0000E+00  0.7000E-02  0.5000E-02
     -6.119  0.0000E+00  0.0000E+00  0.7000E-02  0.5000E-02
     -5.996  0.0000E+00  0.0000E+00  0.7000E-02  0.5000E-02
     -5.874  0.0000E+00  0.0000E+00  0.7000E-02  0.5000E-02
     -5.751  0.0000E+00  0.0000E+00  0.7000E-02  0.5000E-02
     -5.628  0.0000E+00  0.0000E+00  0.7000E-02  0.5000E-02
     -5.506  0.0000E+00 -0.1074E-32  0.7000E-02  0.5000E-02
     -5.383  0.0000E+00 -0.2443E-24  0.7000E-02  0.5000E-02
     -5.260  0.0000E+00 -0.2674E-17  0.7000E-02  0.5000E-02
     -5.138  0.0000E+00 -0.1332E-11  0.7000E-02  0.5000E-02
     -5.015  0.0000E+00 -0.3102E-07  0.7000E-02  0.5000E-02
     -4.892  0.0000E+00 -0.2962E-04  0.7000E-02  0.4996E-02
     -4.770  0.0000E+00 -0.5387E-03  0.7000E-02  0.4930E-02
     -4.647  0.0000E+00  0.9489E-02  0.7000E-02  0.6094E-02
     -4.524  0.0000E+00  0.7954E-02  0.7000E-02  0.7070E-02
     -4.402  0.0000E+00 -0.5510E-03  0.7000E-02  0.7002E-02
     -4.279  0.0000E+00 -0.1823E-04  0.7000E-02  0.7000E-02
     -4.156  0.0000E+00 -0.1414E-07  0.7000E-02  0.7000E-02
     -4.034  0.0000E+00 -0.4572E-12  0.7000E-02  0.7000E-02
     -3.911  0.0000E+00  0.0000E+00  0.7000E-02  0.7000E-02
     -3.788  0.0000E+00  0.0000E+00  0.7000E-02  0.7000E-02
     -3.666  0.0000E+00  0.0000E+00  0.7000E-02  0.7000E-02
     -3.543  0.0000E+00  0.0000E+00  0.7000E-02  0.7000E-02
     -3.421  0.0000E+00  0.0000E+00  0.7000E-02  0.7000E-02
     -3.298  0.0000E+00  0.0000E+00  0.7000E-02  0.7000E-02
     -3.175  0.0000E+00  0.0000E+00  0.7000E-02  0.7000E-02
     -3.053  0.0000E+00  0.0000E+00  0.7000E-02  0.7000E-02
     -2.930  0.0000E+00  0.0000E+00  0.7000E-02  0.7000E-02
     -2.807  0.0000E+00  0.0000E+00  0.7000E-02  0.7000E-02
     -2.685  0.0000E+00  0.0000E+00  0.7000E-02  0.7000E-02
     -2.562  0.0000E+00  0.0000E+00  0.7000E-02  0.7000E-02
     -2.439  0.0000E+00  0.0000E+00  0.7000E-02  0.7000E-02
     -2.317  0.0000E+00  0.0000E+00  0.7000E-02  0.7000E-02
     -2.194  0.0000E+00  0.0000E+00  0.7000E-02  0.7000E-02
     -2.071  0.0000E+00  0.0000E+00  0.7000E-02  0.7000E-02
     -1.949  0.0000E+00  0.0000E+00  0.7000E-02  0.7000E-02
     -1.826  0.0000E+00  0.0000E+00  0.7000E-02  0.7000E-02
     -1.703  0.0000E+00  0.0000E+00  0.7000E-02  0.7000E-02
     -1.581  0.0000E+00  0.0000E+00  0.7000E-02  0.7000E-02
     -1.458  0.0000E+00  0.0000E+00  0.7000E-02  0.7000E-02
     -1.335  0.0000E+00  0.0000E+00  0.7000E-02  0.7000E-02
     -1.213  0.0000E+00  0.0000E+00  0.7000E-02  0.7000E-02
     -1.090 -0.3187E-30 -0.3393E-37  0.7000E-02  0.7000E-02
     -0.967 -0.2008E-22 -0.2259E-28  0.7000E-02  0.7000E-02
     -0.845 -0.5845E-16 -0.7236E-21  0.7000E-02  0.7000E-02
     -0.722 -0.8075E-11 -0.1064E-14  0.7000E-02  0.7000E-02
     -0.599 -0.4925E-07 -0.7383E-10  0.7000E-02  0.7000E-02
     -0.477 -0.1125E-04 -0.2209E-06  0.6999E-02  0.7000E-02
     -0.354  0.1264E-04 -0.2186E-04  0.7000E-02  0.6997E-02
     -0.231  0.1158E-02  0.1382E-03  0.7142E-02  0.7014E-02
     -0.109  0.3436E-02  0.1394E-02  0.7564E-02  0.7185E-02
      0.014  0.3440E-02  0.3324E-02  0.7986E-02  0.7593E-02
      0.136  0.1667E-03  0.3158E-02  0.8006E-02  0.7980E-02
      0.259  0.2074E-02  0.8418E-03  0.8261E-02  0.8083E-02
      0.382  0.6533E-02  0.3586E-02  0.9062E-02  0.8523E-02
      0.504  0.7890E-02  0.7384E-02  0.1003E-01  0.9429E-02
      0.627  0.3055E-02  0.6388E-02  0.1040E-01  0.1021E-01
      0.750  0.2884E-02  0.2355E-02  0.1076E-01  0.1050E-01
      0.872  0.1296E-02  0.2685E-02  0.1092E-01  0.1083E-01
      0.995  0.6662E-03  0.1477E-02  0.1100E-01  0.1101E-01
      1.118  0.1717E-04 -0.9147E-04  0.1100E-01  0.1100E-01
      1.240 -0.7060E-05 -0.4988E-05  0.1100E-01  0.1100E-01
      1.363 -0.2159E-07 -0.6214E-08  0.1100E-01  0.1100E-01
      1.486 -0.2485E-11 -0.3431E-12  0.1100E-01  0.1100E-01
      1.608 -0.1267E-16 -0.8046E-18  0.1100E-01  0.1100E-01
      1.731  0.0000E+00  0.0000E+00  0.1100E-01  0.1100E-01
      1.854  0.0000E+00  0.0000E+00  0.1100E-01  0.1100E-01
      1.976  0.0000E+00  0.0000E+00  0.1100E-01  0.1100E-01
      2.099  0.0000E+00  0.0000E+00  0.1100E-01  0.1100E-01
      2.222  0.0000E+00  0.0000E+00  0.1100E-01  0.1100E-01
      2.344  0.0000E+00  0.0000E+00  0.1100E-01  0.1100E-01
      2.467  0.0000E+00  0.0000E+00  0.1100E-01  0.1100E-01
      2.590  0.0000E+00  0.0000E+00  0.1100E-01  0.1100E-01
