    2    2 1000    2
  0.8961120E+03  0.1016000E-08  0.1176000E-08  0.1500000E-08  0.5000000E-15
  1.000000000000000E-004
  CAR 
 Beta12Borophene !The name of the system 
   12    4   11
 
  0.0000000E+00  0.0000000E+00  0.2500000E+00  0.1111111E+00
   1      -32.534557    -31.310350
   2      -20.621121    -18.825157
   3      -13.403371    -12.476174
   4      -13.267817    -11.421673
   5      -13.266958    -11.417225
   6       -6.936116     -4.655154
   7       -6.934684     -4.650154
   8       -0.289893     -0.194546
   9        0.183213      0.247181
  10        0.684118      0.798044
  11        0.917024      0.893248
 
  0.3333333E+00  0.0000000E+00  0.2500000E+00  0.2222222E+00
   1      -32.534539    -31.310317
   2      -20.621134    -18.825167
   3      -13.403374    -12.476177
   4      -13.267816    -11.421669
   5      -13.266954    -11.417223
   6       -6.936124     -4.655189
   7       -6.934709     -4.650156
   8       -0.146369     -0.040772
   9        0.318802      0.394338
  10        0.404439      0.482644
  11        0.757039      0.865871
 
  0.0000000E+00  0.3333333E+00  0.2500000E+00  0.2222222E+00
   1      -32.534536    -31.310305
   2      -20.621132    -18.825167
   3      -13.403377    -12.476178
   4      -13.267807    -11.421672
   5      -13.266958    -11.417217
   6       -6.936121     -4.655166
   7       -6.934700     -4.650160
   8       -0.195739     -0.086765
   9        0.247474      0.305849
  10        0.309129      0.385344
  11        0.663301      0.729559
 
  0.3333333E+00  0.3333333E+00  0.2500000E+00  0.4444444E+00
   1      -32.534535    -31.310310
   2      -20.621129    -18.825165
   3      -13.403374    -12.476177
   4      -13.267813    -11.421668
   5      -13.266952    -11.417221
   6       -6.936132     -4.655183
   7       -6.934695     -4.650165
   8       -0.056005      0.065088
   9        0.384662      0.452231
  10        0.444420      0.538586
  11        0.522079      0.602014
