       N       E                     dE             d eps       ncg     rms          rms(c)
DAV:   1     0.817062428910E+02    0.81706E+02   -0.25408E+03   240   0.527E+02
DAV:   2     0.139003593255E+02   -0.67806E+02   -0.67399E+02   284   0.138E+02
DAV:   3    -0.283188237675E+01   -0.16732E+02   -0.13090E+02   248   0.563E+01
DAV:   4    -0.876097961209E+01   -0.59291E+01   -0.51929E+01   267   0.176E+01
DAV:   5    -0.955666537313E+01   -0.79569E+00   -0.80390E+00   211   0.619E+00    0.680E+00
DAV:   6    -0.936303483637E+01    0.19363E+00   -0.15584E+00   198   0.112E+01    0.312E+00
DAV:   7    -0.955212918122E+01   -0.18909E+00   -0.23149E-01   194   0.478E+00    0.152E+00
DAV:   8    -0.954603419173E+01    0.60950E-02   -0.89074E-02   200   0.246E+00    0.535E-01
DAV:   9    -0.954931948548E+01   -0.32853E-02   -0.60080E-03   185   0.764E-01    0.320E-01
DAV:  10    -0.954949936480E+01   -0.17988E-03   -0.11355E-03   182   0.338E-01    0.132E-01
DAV:  11    -0.955090678809E+01   -0.14074E-02   -0.63135E-04   194   0.237E-01    0.223E-01
DAV:  12    -0.955097960646E+01   -0.72818E-04   -0.13941E-04   182   0.143E-01
   1 F= -.95509796E+01 E0= -.95529155E+01  d E =-.955098E+01  mag=     2.0000
       N       E                     dE             d eps       ncg     rms          rms(c)
DAV:   1     0.189070134747E+00    0.97400E+01   -0.15801E+03   176   0.327E+02    0.142E+01
DAV:   2    -0.442850101799E+01   -0.46176E+01   -0.54017E+01   182   0.622E+01    0.511E+00
DAV:   3    -0.498612387537E+01   -0.55762E+00   -0.12393E+00   265   0.110E+01    0.275E+00
DAV:   4    -0.502601926777E+01   -0.39895E-01   -0.11457E-01   207   0.291E+00    0.151E+00
DAV:   5    -0.506817638113E+01   -0.42157E-01   -0.77491E-02   185   0.234E+00    0.459E-01
DAV:   6    -0.507520333071E+01   -0.70269E-02   -0.59040E-03   182   0.643E-01    0.259E-01
DAV:   7    -0.508016816814E+01   -0.49648E-02   -0.72816E-03   176   0.624E-01    0.427E-02
DAV:   8    -0.508175446262E+01   -0.15863E-02   -0.13693E-04   162   0.942E-02    0.391E-02
DAV:   9    -0.508233811344E+01   -0.58365E-03   -0.36238E-05   121   0.376E-02    0.422E-02
DAV:  10    -0.508194218074E+01    0.39593E-03   -0.34765E-05   112   0.454E-02    0.427E-02
DAV:  11    -0.508268732438E+01   -0.74514E-03   -0.17944E-04   112   0.961E-02    0.286E-02
DAV:  12    -0.508421173904E+01   -0.15244E-02   -0.49052E-04   185   0.201E-01    0.367E-02
DAV:  13    -0.508455482784E+01   -0.34309E-03   -0.85735E-05   127   0.116E-01    0.195E-02
DAV:  14    -0.508460010231E+01   -0.45274E-04   -0.36369E-05   127   0.618E-02
   2 F= -.50846001E+01 E0= -.50865393E+01  d E =0.446638E+01  mag=     2.0000
       N       E                     dE             d eps       ncg     rms          rms(c)
DAV:   1    -0.676388508479E+01   -0.16793E+01   -0.32664E+02   176   0.155E+02    0.581E+00
DAV:   2    -0.752041204473E+01   -0.75653E+00   -0.76023E+00   220   0.248E+01    0.295E+00
DAV:   3    -0.764658570210E+01   -0.12617E+00   -0.19582E-01   223   0.440E+00    0.153E+00
DAV:   4    -0.765707252441E+01   -0.10487E-01   -0.12841E-01   217   0.275E+00    0.501E-01
DAV:   5    -0.767437673894E+01   -0.17304E-01   -0.50146E-03   211   0.786E-01    0.234E-01
DAV:   6    -0.767878952586E+01   -0.44128E-02   -0.23342E-03   235   0.385E-01    0.110E-01
DAV:   7    -0.768125873958E+01   -0.24692E-02   -0.25428E-04   220   0.161E-01    0.547E-02
DAV:   8    -0.768183530932E+01   -0.57657E-03   -0.16563E-04   152   0.896E-02    0.916E-02
DAV:   9    -0.768173293653E+01    0.10237E-03   -0.25481E-05   127   0.686E-02    0.748E-02
DAV:  10    -0.768201897952E+01   -0.28604E-03   -0.57026E-05   115   0.740E-02    0.918E-03
DAV:  11    -0.768231596105E+01   -0.29698E-03   -0.10875E-05   144   0.297E-02    0.532E-03
DAV:  12    -0.768267839026E+01   -0.36243E-03   -0.14693E-05   219   0.244E-02    0.352E-03
DAV:  13    -0.768278448122E+01   -0.10609E-03   -0.34157E-06   139   0.137E-02    0.192E-03
DAV:  14    -0.768283784396E+01   -0.53363E-04   -0.59720E-06   190   0.120E-02
   3 F= -.76828378E+01 E0= -.76847705E+01  d E =0.186814E+01  mag=     2.0000
       N       E                     dE             d eps       ncg     rms          rms(c)
DAV:   1    -0.903374630690E+01   -0.13510E+01   -0.13843E+02   176   0.103E+02    0.410E+00
DAV:   2    -0.927312363698E+01   -0.23938E+00   -0.28107E+00   188   0.152E+01    0.196E+00
DAV:   3    -0.935379201960E+01   -0.80668E-01   -0.96091E-02   319   0.303E+00    0.950E-01
DAV:   4    -0.935041817091E+01    0.33738E-02   -0.50149E-02   281   0.179E+00    0.313E-01
DAV:   5    -0.935897222512E+01   -0.85541E-02   -0.17709E-03   256   0.444E-01    0.150E-01
DAV:   6    -0.936050227453E+01   -0.15300E-02   -0.72063E-04   303   0.223E-01    0.586E-02
DAV:   7    -0.936185932516E+01   -0.13571E-02   -0.97668E-05   280   0.103E-01    0.122E-02
DAV:   8    -0.936213243663E+01   -0.27311E-03   -0.85889E-06   310   0.238E-02    0.734E-03
DAV:   9    -0.936245244988E+01   -0.32001E-03   -0.20469E-05   325   0.271E-02    0.880E-03
DAV:  10    -0.936248273448E+01   -0.30285E-04   -0.87906E-07   284   0.771E-03
   4 F= -.93624827E+01 E0= -.93644154E+01  d E =0.188497E+00  mag=     2.0000
       N       E                     dE             d eps       ncg     rms          rms(c)
DAV:   1    -0.974502533013E+01   -0.38257E+00   -0.25952E+01   176   0.454E+01    0.188E+00
DAV:   2    -0.976235849326E+01   -0.17333E-01   -0.45403E-01   221   0.646E+00    0.888E-01
DAV:   3    -0.978776896807E+01   -0.25410E-01   -0.22441E-02   215   0.139E+00    0.398E-01
DAV:   4    -0.978910350068E+01   -0.13345E-02   -0.98316E-03   206   0.812E-01    0.133E-01
DAV:   5    -0.979006314429E+01   -0.95964E-03   -0.63843E-04   200   0.245E-01    0.707E-02
DAV:   6    -0.979061926595E+01   -0.55612E-03   -0.99627E-05   191   0.989E-02    0.291E-02
DAV:   7    -0.979103972762E+01   -0.42046E-03   -0.23930E-05   191   0.575E-02    0.116E-02
DAV:   8    -0.979118349511E+01   -0.14377E-03   -0.72291E-06   191   0.253E-02    0.181E-02
DAV:   9    -0.979117721618E+01    0.62789E-05   -0.28130E-06   200   0.195E-02
   5 F= -.97911772E+01 E0= -.97931099E+01  d E =-.240198E+00  mag=     2.0000
       N       E                     dE             d eps       ncg     rms          rms(c)
DAV:   1    -0.983697653156E+01   -0.45793E-01   -0.88030E+00   224   0.268E+01    0.109E+00
DAV:   2    -0.983940138166E+01   -0.24249E-02   -0.14325E-01   194   0.368E+00    0.509E-01
DAV:   3    -0.984646127184E+01   -0.70599E-02   -0.68197E-03   197   0.830E-01    0.234E-01
DAV:   4    -0.984697763065E+01   -0.51636E-03   -0.38657E-03   188   0.508E-01    0.797E-02
DAV:   5    -0.984748134837E+01   -0.50372E-03   -0.28285E-04   176   0.163E-01    0.422E-02
DAV:   6    -0.984774859622E+01   -0.26725E-03   -0.48253E-05   191   0.709E-02    0.151E-02
DAV:   7    -0.984795791896E+01   -0.20932E-03   -0.10772E-05   179   0.377E-02    0.535E-03
DAV:   8    -0.984803423917E+01   -0.76320E-04   -0.29287E-06   191   0.132E-02
   6 F= -.98480342E+01 E0= -.98499669E+01  d E =-.297055E+00  mag=     2.0000
       N       E                     dE             d eps       ncg     rms          rms(c)
DAV:   1    -0.985114582621E+01   -0.31879E-02   -0.42355E-01   224   0.586E+00    0.248E-01
DAV:   2    -0.985070615205E+01    0.43967E-03   -0.57525E-03   182   0.783E-01    0.111E-01
DAV:   3    -0.985145948495E+01   -0.75333E-03   -0.33672E-04   179   0.197E-01    0.498E-02
DAV:   4    -0.985152256305E+01   -0.63078E-04   -0.13387E-04   197   0.100E-01
   7 F= -.98515226E+01 E0= -.98534553E+01  d E =-.300543E+00  mag=     2.0000
       N       E                     dE             d eps       ncg     rms          rms(c)
DAV:   1    -0.985170980105E+01   -0.25032E-03   -0.91141E-03   182   0.862E-01    0.374E-02
DAV:   2    -0.985173329475E+01   -0.23494E-04   -0.14038E-04   191   0.121E-01
   8 F= -.98517333E+01 E0= -.98536665E+01  d E =-.300754E+00  mag=     2.0000
       N       E                     dE             d eps       ncg     rms          rms(c)
DAV:   1    -0.985175538538E+01   -0.45584E-04   -0.18255E-04   182   0.124E-01    0.143E-02
DAV:   2    -0.985176364450E+01   -0.82591E-05   -0.70925E-06   185   0.252E-02
   9 F= -.98517636E+01 E0= -.98536967E+01  d E =-.300784E+00  mag=     2.0000
