 vasp.5.3.3 18Dez12 (build Aug 26 2015 16:06:49) complex                        
  
 executed on             LinuxIFC date 2020.05.16  23:00:32
 running on    4 total cores
 distrk:  each k-point on    4 cores,    1 groups
 distr:  one band on NCORES_PER_BAND=   4 cores,    1 groups


--------------------------------------------------------------------------------------------------------


 INCAR:
 POTCAR:    PAW_PBE O 08Apr2002                   
 POTCAR:    PAW_PBE O 08Apr2002                   
   SHA256 =  818f92134a0a090dccd8ba1447fa70422a3b330e708bb4f08108d8ae51209ddf O/
   COPYR  = (c) Copyright 08Apr2002 Georg Kresse                                
   COPYR  = This file is part of the software VASP. Any use, copying, and all ot
   COPYR  = If you do not have a valid VASP license, you may not use, copy or di
   VRHFIN =O: s2p4                                                              
   LEXCH  = PE                                                                  
   EATOM  =   432.3788 eV,   31.7789 Ry                                         
                                                                                
   TITEL  = PAW_PBE O 08Apr2002                                                 
   LULTRA =        F    use ultrasoft PP ?                                      
   IUNSCR =        1    unscreen: 0-lin 1-nonlin 2-no                           
   RPACOR =    1.200    partial core radius                                     
   POMASS =   16.000; ZVAL   =    6.000    mass and valenz                      
   RCORE  =    1.520    outmost cutoff radius                                   
   RWIGS  =    1.550; RWIGS  =    0.820    wigner-seitz radius (au A)           
   ENMAX  =  400.000; ENMIN  =  300.000 eV                                      
   ICORE  =        2    local potential                                         
   LCOR   =        T    correct aug charges                                     
   LPAW   =        T    paw PP                                                  
   EAUG   =  605.392                                                            
   DEXC   =    0.000                                                            
   RMAX   =    1.553    core radius for proj-oper                               
   RAUG   =    1.300    factor for augmentation sphere                          
   RDEP   =    1.550    radius for radial grids                                 
   RDEPT  =    1.329    core radius for aug-charge                              
                                                                                
   Atomic configuration                                                         
    4 entries                                                                   
     n  l   j            E        occ.                                          
     1  0  0.50      -514.6923   2.0000                                         
     2  0  0.50       -23.9615   2.0000                                         
     2  1  0.50        -9.0305   4.0000                                         
     3  2  1.50        -9.5241   0.0000                                         
   Description                                                                  
     l       E           TYP  RCUT    TYP  RCUT                                 
     0    -23.9615318     23  1.200                                             
     0     -9.5240782     23  1.200                                             
     1     -9.0304911     23  1.520                                             
     1      8.1634956     23  1.520                                             
     2     -9.5240782      7  1.500                                             
  local pseudopotential read in
  partial core-charges read in
  partial kinetic energy density read in
  kinetic energy density of atom read in
  atomic valenz-charges read in
  non local Contribution for L=           0  read in
    real space projection operators read in
  non local Contribution for L=           0  read in
    real space projection operators read in
  non local Contribution for L=           1  read in
    real space projection operators read in
  non local Contribution for L=           1  read in
    real space projection operators read in
    PAW grid and wavefunctions read in
 
   number of l-projection  operators is LMAX  =           4
   number of lm-projection operators is LMMAX =           8
 

 ----------------------------------------------------------------------------- 
|                                                                             |
|  ADVICE TO THIS USER RUNNING 'VASP/VAMP'   (HEAR YOUR MASTER'S VOICE ...):  |
|                                                                             |
|      You have a (more or less) 'small supercell' and for smaller cells      |
|      it is recommended  to use the reciprocal-space projection scheme!      |
|      The real space optimization is not  efficient for small cells and it   |
|      is also less accurate ...                                              |
|      Therefore set LREAL=.FALSE. in the  INCAR file                         |
|                                                                             |
 ----------------------------------------------------------------------------- 

 Optimization of the real space projectors (new method)

 maximal supplied QI-value         = 24.76
 optimisation between [QCUT,QGAM] = [ 11.39, 22.77] = [ 36.31,145.25] Ry 
 Optimized for a Real-space Cutoff    1.00 Angstroem

   l    n(q)    QCUT    max X(q) W(low)/X(q) W(high)/X(q)  e(spline) 
   0      7    11.387    20.381    0.39E-03    0.13E-02    0.15E-06
   0      7    11.387    15.268    0.42E-03    0.14E-02    0.17E-06
   1      6    11.387     5.964    0.41E-03    0.11E-02    0.17E-06
   1      6    11.387     5.382    0.39E-03    0.87E-03    0.15E-06
  PAW_PBE O 08Apr2002                   :
 energy of atom  1       EATOM= -432.3788
 kinetic energy error for atom=    0.0224 (will be added to EATOM!!)
 
 
 POSCAR: MoleculeAdsorption                      
  positions in direct lattice
  velocities in cartesian coordinates
  No initial velocities read in
 exchange correlation table for  LEXCH =        8
   RHO(1)=    0.500       N(1)  =     2000
   RHO(2)=  100.500       N(2)  =     4000
 


--------------------------------------------------------------------------------------------------------


 ion  position               nearest neighbor table
   1  0.000  0.000  0.077-   2 1.15
   2  0.000  0.000  0.000-   1 1.15
 
  LATTYP: Found a simple orthorhombic cell.
 ALAT       =    10.1600000000
 B/A-ratio  =     1.1574803150
 C/A-ratio  =     1.4763779528
  
  Lattice vectors:
  
 A1 = (  10.1600000000,   0.0000000000,   0.0000000000)
 A2 = (   0.0000000000,  11.7600000000,   0.0000000000)
 A3 = (   0.0000000000,   0.0000000000,  15.0000000000)


Analysis of symmetry for initial positions (statically):
=====================================================================
 Subroutine PRICEL returns:
 Original cell was already a primitive cell.
 

 Routine SETGRP: Setting up the symmetry group for a 
 simple orthorhombic supercell.


 Subroutine GETGRP returns: Found  8 space group operations
 (whereof  4 operations were pure point group operations)
 out of a pool of  8 trial point group operations.


The static configuration has the point symmetry C_2v.
 The point group associated with its full space group is D_2h.


Analysis of symmetry for dynamics (positions and initial velocities):
=====================================================================
 Subroutine PRICEL returns:
 Original cell was already a primitive cell.
 

 Routine SETGRP: Setting up the symmetry group for a 
 simple orthorhombic supercell.


 Subroutine GETGRP returns: Found  8 space group operations
 (whereof  4 operations were pure point group operations)
 out of a pool of  8 trial point group operations.


The dynamic configuration has the point symmetry C_2v.
 The point group associated with its full space group is D_2h.


Analysis of magnetic symmetry:
=====================================================================

 Subroutine MAGSYM returns: Found  8 space group operations
 (whereof  4 operations were pure point group operations)
 out of a pool of  8 trial space group operations
 (whereof  4 operations were pure point group operations)
 and found also     1 'primitive' translations


The magnetic configuration has the point symmetry C_2v.
 The point group associated with its full space group is D_2h.


 irot  :   1
 --------------------------------------------------------------------
 isymop:   1   0   0
           0   1   0
           0   0   1

 gtrans:     0.0000000     0.0000000     0.0000000

 ptrans:     0.0000000     0.0000000     0.0000000
 rotmap:
 (   1->   1)  (   2->   2) 


 irot  :   2
 --------------------------------------------------------------------
 isymop:  -1   0   0
           0  -1   0
           0   0   1

 gtrans:     0.0000000     0.0000000     0.0000000

 ptrans:     0.0000000     0.0000000     0.0000000
 rotmap:
 (   1->   1)  (   2->   2) 


 irot  :   3
 --------------------------------------------------------------------
 isymop:   1   0   0
           0  -1   0
           0   0   1

 gtrans:     0.0000000     0.0000000     0.0000000

 ptrans:     0.0000000     0.0000000     0.0000000
 rotmap:
 (   1->   1)  (   2->   2) 


 irot  :   4
 --------------------------------------------------------------------
 isymop:  -1   0   0
           0   1   0
           0   0   1

 gtrans:     0.0000000     0.0000000     0.0000000

 ptrans:     0.0000000     0.0000000     0.0000000
 rotmap:
 (   1->   1)  (   2->   2) 


 irot  :   5
 --------------------------------------------------------------------
 isymop:  -1   0   0
           0  -1   0
           0   0  -1

 gtrans:     0.0000000     0.0000000     0.0767300

 ptrans:     0.0000000     0.0000000     0.0000000
 rotmap:
 (   1->   2)  (   2->   1) 


 irot  :   6
 --------------------------------------------------------------------
 isymop:   1   0   0
           0   1   0
           0   0  -1

 gtrans:     0.0000000     0.0000000     0.0767300

 ptrans:     0.0000000     0.0000000     0.0000000
 rotmap:
 (   1->   2)  (   2->   1) 


 irot  :   7
 --------------------------------------------------------------------
 isymop:  -1   0   0
           0   1   0
           0   0  -1

 gtrans:     0.0000000     0.0000000     0.0767300

 ptrans:     0.0000000     0.0000000     0.0000000
 rotmap:
 (   1->   2)  (   2->   1) 


 irot  :   8
 --------------------------------------------------------------------
 isymop:   1   0   0
           0  -1   0
           0   0  -1

 gtrans:     0.0000000     0.0000000     0.0767300

 ptrans:     0.0000000     0.0000000     0.0000000
 rotmap:
 (   1->   2)  (   2->   1) 
 
 
 KPOINTS: K-Points                                

Automatic generation of k-mesh.
Space group operators:
 irot       det(A)        alpha          n_x          n_y          n_z        tau_x        tau_y        tau_z
    1     1.000000     0.000000     1.000000     0.000000     0.000000     0.000000     0.000000     0.000000
    2     1.000000   180.000000     0.000000     0.000000     1.000000     0.000000     0.000000     0.000000
    3    -1.000000   180.000000     0.000000     1.000000     0.000000     0.000000     0.000000     0.000000
    4    -1.000000   180.000000     1.000000     0.000000     0.000000     0.000000     0.000000     0.000000
    5    -1.000000     0.000000     1.000000     0.000000     0.000000     0.000000     0.000000     0.076730
    6    -1.000000   180.000000     0.000000     0.000000     1.000000     0.000000     0.000000     0.076730
    7     1.000000   180.000000     0.000000     1.000000     0.000000     0.000000     0.000000     0.076730
    8     1.000000   180.000000     1.000000     0.000000     0.000000     0.000000     0.000000     0.076730
 
 Subroutine IBZKPT returns following result:
 ===========================================
 
 Found      4 irreducible k-points:
 
 Following reciprocal coordinates:
            Coordinates               Weight
  0.000000  0.000000  0.250000      2.000000
  0.333333  0.000000  0.250000      4.000000
  0.000000  0.333333  0.250000      4.000000
  0.333333  0.333333  0.250000      8.000000
 
 Following cartesian coordinates:
            Coordinates               Weight
  0.000000  0.000000  0.016667      2.000000
  0.032808  0.000000  0.016667      4.000000
  0.000000  0.028345  0.016667      4.000000
  0.032808  0.028345  0.016667      8.000000
 


--------------------------------------------------------------------------------------------------------




 Dimension of arrays:
   k-points           NKPTS =      4   k-points in BZ     NKDIM =      4   number of bands    NBANDS=     11
   number of dos      NEDOS =    301   number of ions     NIONS =      2
   non local maximal  LDIM  =      4   non local SUM 2l+1 LMDIM =      8
   total plane-waves  NPLWV = 301056
   max r-space proj   IRMAX =    762   max aug-charges    IRDMAX=   2379
   dimension x,y,z NGX =    56 NGY =   64 NGZ =   84
   dimension x,y,z NGXF=   112 NGYF=  128 NGZF=  168
   support grid    NGXF=   112 NGYF=  128 NGZF=  168
   ions per type =               2
 NGX,Y,Z   is equivalent  to a cutoff of   9.16,  9.05,  9.31 a.u.
 NGXF,Y,Z  is equivalent  to a cutoff of  18.33, 18.09, 18.62 a.u.


 I would recommend the setting:
   dimension x,y,z NGX =    56 NGY =   64 NGZ =   82
 SYSTEM =  Beta12Borophene !The name of the system 
 POSCAR =  MoleculeAdsorption                      

 Startparameter for this run:
   NWRITE =      2    write-flag & timer
   PREC   = normal    normal or accurate (medium, high low for compatibility)
   ISTART =      0    job   : 0-new  1-cont  2-samecut
   ICHARG =      2    charge: 1-file 2-atom 10-const
   ISPIN  =      2    spin polarized calculation?
   LNONCOLLINEAR =      F non collinear calculations
   LSORBIT =      F    spin-orbit coupling
   INIWAV =      1    electr: 0-lowe 1-rand  2-diag
   LASPH  =      F    aspherical Exc in radial PAW
   METAGGA=      F    non-selfconsistent MetaGGA calc.

 Electronic Relaxation 1
   ENCUT  =  500.0 eV  36.75 Ry    6.06 a.u.  18.52 21.44 27.35*2*pi/ulx,y,z
   ENINI  =  500.0     initial cutoff
   ENAUG  =  605.4 eV  augmentation charge cutoff
   NELM   =     60;   NELMIN=  2; NELMDL= -5     # of ELM steps 
   EDIFF  = 0.1E-03   stopping-criterion for ELM
   LREAL  =      T    real-space projection
   NLSPLINE    = F    spline interpolate recip. space projectors
   LCOMPAT=      F    compatible to vasp.4.4
   GGA_COMPAT  = T    GGA compatible to vasp.4.4-vasp.4.6
   LMAXPAW     = -100 max onsite density
   LMAXMIX     =    2 max onsite mixed and CHGCAR
   VOSKOWN=      0    Vosko Wilk Nusair interpolation
   ROPT   =   -0.00050
 Ionic relaxation
   EDIFFG = -.1E-01   stopping-criterion for IOM
   NSW    =   1000    number of steps for IOM
   NBLOCK =      1;   KBLOCK =   1000    inner block; outer block 
   IBRION =      2    ionic relax: 0-MD 1-quasi-New 2-CG
   NFREE  =      1    steps in history (QN), initial steepest desc. (CG)
   ISIF   =      2    stress and relaxation
   IWAVPR =     11    prediction:  0-non 1-charg 2-wave 3-comb
   ISYM   =      2    0-nonsym 1-usesym 2-fastsym
   LCORR  =      T    Harris-Foulkes like correction to forces

   POTIM  = 0.5000    time-step for ionic-motion
   TEIN   =    0.0    initial temperature
   TEBEG  =    0.0;   TEEND  =   0.0 temperature during run
   SMASS  =  -3.00    Nose mass-parameter (am)
   estimated Nose-frequenzy (Omega)   =  0.10E-29 period in steps =****** mass=  -0.236E-26a.u.
   SCALEE = 1.0000    scale energy and forces
   NPACO  =    256;   APACO  = 16.0  distance and # of slots for P.C.
   PSTRESS=    0.0 pullay stress

  Mass of Ions in am
   POMASS =  16.00
  Ionic Valenz
   ZVAL   =   6.00
  Atomic Wigner-Seitz radii
   RWIGS  =  -1.00
  virtual crystal weights 
   VCA    =   1.00
   NELECT =      12.0000    total number of electrons
   NUPDOWN=      -1.0000    fix difference up-down

 DOS related values:
   EMIN   =  10.00;   EMAX   =-10.00  energy-range for DOS
   EFERMI =   0.00
   ISMEAR =     1;   SIGMA  =   0.10  broadening in eV -4-tet -1-fermi 0-gaus

 Electronic relaxation 2 (details)
   IALGO  =     38    algorithm
   LDIAG  =      T    sub-space diagonalisation (order eigenvalues)
   LSUBROT=      T    optimize rotation matrix (better conditioning)
   TURBO    =      0    0=normal 1=particle mesh
   IRESTART =      0    0=no restart 2=restart with 2 vectors
   NREBOOT  =      0    no. of reboots
   NMIN     =      0    reboot dimension
   EREF     =   0.00    reference energy to select bands
   IMIX   =      4    mixing-type and parameters
     AMIX     =   0.40;   BMIX     =  1.00
     AMIX_MAG =   1.60;   BMIX_MAG =  1.00
     AMIN     =   0.10
     WC   =   100.;   INIMIX=   1;  MIXPRE=   1;  MAXMIX= -45

 Intra band minimization:
   WEIMIN = 0.0010     energy-eigenvalue tresh-hold
   EBREAK =  0.23E-05  absolut break condition
   DEPER  =   0.30     relativ break condition  

   TIME   =   0.40     timestep for ELM

  volume/ion in A,a.u.               =     896.11      6047.26
  Fermi-wavevector in a.u.,A,eV,Ry     =   0.308559  0.583091  1.295390  0.095208
  Thomas-Fermi vector in A             =   1.184467
 
 Write flags
   LWAVE  =      F    write WAVECAR
   LCHARG =      F    write CHGCAR
   LVTOT  =      F    write LOCPOT, total local potential
   LVHAR  =      F    write LOCPOT, Hartree potential only
   LELF   =      F    write electronic localiz. function (ELF)
   LORBIT =      0    0 simple, 1 ext, 2 COOP (PROOUT)


 Dipole corrections
   LMONO  =      F    monopole corrections only (constant potential shift)
   LDIPOL =      T    correct potential (dipole corrections)
   IDIPOL =      3    1-x, 2-y, 3-z, 4-all directions 
   EPSILON=  1.0000000 bulk dielectric constant

 Exchange correlation treatment:
   GGA     =    PE    GGA type
   LEXCH   =     8    internal setting for exchange type
   VOSKOWN=      0    Vosko Wilk Nusair interpolation
   LHFCALC =     F    Hartree Fock is set to
   LHFONE  =     F    Hartree Fock one center treatment
   AEXX    =    0.0000 exact exchange contribution

 Linear response parameters
   LEPSILON=     F    determine dielectric tensor
   LRPA    =     F    only Hartree local field effects (RPA)
   LNABLA  =     F    use nabla operator in PAW spheres
   LVEL    =     F    velocity operator in full k-point grid
   LINTERFAST=   F  fast interpolation
   KINTER  =     0    interpolate to denser k-point grid
   CSHIFT  =0.1000    complex shift for real part using Kramers Kronig
   OMEGAMAX=  -1.0    maximum frequency
   DEG_THRESHOLD= 0.2000000E-02 threshold for treating states as degnerate
   RTIME   =    0.100 relaxation time in fs

 Orbital magnetization related:
   ORBITALMAG=     F  switch on orbital magnetization
   LCHIMAG   =     F  perturbation theory with respect to B field
   DQ        =  0.001000  dq finite difference perturbation B field



--------------------------------------------------------------------------------------------------------


 conjugate gradient relaxation of ions
 charge density and potential will be updated during run
 spin polarized calculation
 Variant of blocked Davidson
 Davidson routine will perform the subspace rotation
 perform sub-space diagonalisation
    after iterative eigenvector-optimisation
 modified Broyden-mixing scheme, WC =      100.0
 initial mixing is a Kerker type mixing with AMIX =  0.4000 and BMIX =      1.0000
 Hartree-type preconditioning will be used
 using additional bands            5
 real space projection scheme for non local part
 use partial core corrections
 calculate Harris-corrections to forces 
   (improved forces if not selfconsistent)
 use gradient corrections 
 use of overlap-Matrix (Vanderbilt PP)
 Methfessel and Paxton  Order N= 1 SIGMA  =   0.10


--------------------------------------------------------------------------------------------------------


  energy-cutoff  :      500.00
  volume of cell :     1792.22
      direct lattice vectors                 reciprocal lattice vectors
    10.160000000  0.000000000  0.000000000     0.098425197  0.000000000  0.000000000
     0.000000000 11.760000000  0.000000000     0.000000000  0.085034014  0.000000000
     0.000000000  0.000000000 15.000000000     0.000000000  0.000000000  0.066666667

  length of vectors
    10.160000000 11.760000000 15.000000000     0.098425197  0.085034014  0.066666667


 
 k-points in units of 2pi/SCALE and weight: K-Points                                
   0.00000000  0.00000000  0.01666667       0.111
   0.03280840  0.00000000  0.01666667       0.222
   0.00000000  0.02834467  0.01666667       0.222
   0.03280840  0.02834467  0.01666667       0.444
 
 k-points in reciprocal lattice and weights: K-Points                                
   0.00000000  0.00000000  0.25000000       0.111
   0.33333333  0.00000000  0.25000000       0.222
   0.00000000  0.33333333  0.25000000       0.222
   0.33333333  0.33333333  0.25000000       0.444
 
 position of ions in fractional coordinates (direct lattice) 
   0.00000000  0.00000000  0.07673000
   0.00000000  0.00000000  0.00000000
 
 position of ions in cartesian coordinates  (Angst):
   0.00000000  0.00000000  1.15095000
   0.00000000  0.00000000  0.00000000
 


--------------------------------------------------------------------------------------------------------


 k-point  1 :   0.0000 0.0000 0.2500  plane waves:   45501
 k-point  2 :   0.3333 0.0000 0.2500  plane waves:   45508
 k-point  3 :   0.0000 0.3333 0.2500  plane waves:   45494
 k-point  4 :   0.3333 0.3333 0.2500  plane waves:   45490

 maximum and minimum number of plane-waves per node :     11396    11341

 maximum number of plane-waves:     45508
 maximum index in each direction: 
   IXMAX=   18   IYMAX=   21   IZMAX=   27
   IXMIN=  -18   IYMIN=  -21   IZMIN=  -27

 WARNING: aliasing errors must be expected set NGX to  74 to avoid them
 WARNING: aliasing errors must be expected set NGY to  86 to avoid them
 WARNING: aliasing errors must be expected set NGZ to 110 to avoid them
 aliasing errors are usually negligible using standard VASP settings
 and one can safely disregard these warnings

 real space projection operators:
  total allocation   :         88.44 KBytes
  max/ min on nodes  :         23.31         20.88


 parallel 3D FFT for wavefunctions:
    minimum data exchange during FFTs selected (reduces bandwidth)
 parallel 3D FFT for charge:
    minimum data exchange during FFTs selected (reduces bandwidth)


 total amount of memory used by VASP on root node   118632. kBytes
========================================================================

   base      :      30000. kBytes
   nonlr-proj:         53. kBytes
   fftplans  :      22742. kBytes
   grid      :      49803. kBytes
   one-center:          6. kBytes
   wavefun   :      16028. kBytes
 
 Broyden mixing: mesh for mixing (old mesh)
   NGX = 37   NGY = 43   NGZ = 55
  (NGX  =112   NGY  =128   NGZ  =168)
  gives a total of  87505 points

 initial charge density was supplied:
 charge density of overlapping atoms calculated
 number of electron      12.0000000 magnetization       2.0000000
 keeping initial charge density in first step


--------------------------------------------------------------------------------------------------------


 Maximum index for non-local projection operator          187
 Maximum index for augmentation-charges          494 (set IRDMAX)


--------------------------------------------------------------------------------------------------------


 First call to EWALD:  gamma=   0.146
 Maximum number of real-space cells 3x 3x 2
 Maximum number of reciprocal cells 2x 3x 3

 FEWALD executed in parallel
    FEWALD:  cpu time    0.00: real time    0.00


----------------------------------------- Iteration    1(   1)  ---------------------------------------


    POTLOK:  cpu time    0.80: real time    0.81
    SETDIJ:  cpu time    0.01: real time    0.01
     EDDAV:  cpu time    1.36: real time    1.37
       DOS:  cpu time    0.00: real time    0.00
    --------------------------------------------
      LOOP:  cpu time    2.16: real time    2.19

 eigenvalue-minimisations  :   240
 total energy-change (2. order) : 0.8170624E+02  (-0.2540841E+03)
 number of electron      12.0000000 magnetization       2.0000000
 augmentation part       12.0000000 magnetization       2.0000000

 DIPCOR: dipole corrections for dipol
 direction  3 min pos    99,
 dipolmoment           0.000000      0.000000      0.000009 electrons x Angstroem
 Tr[quadrupol]         0.649090

 energy correction for charged system         0.000000 eV
 dipol+quadrupol energy correction           -0.000000 eV
 added-field ion interaction          0.000007 eV  (added to PSCEN)


 Free energy of the ion-electron system (eV)
  ---------------------------------------------------
  alpha Z        PSCENC =         0.31013466
  Ewald energy   TEWEN  =       218.26681851
  -1/2 Hartree   DENC   =      -938.11556215
  -exchange  EXHF       =         0.00000000
  -V(xc)+E(xc)   XCENC  =        55.12774361
  PAW double counting   =       692.81204765     -696.39983308
  entropy T*S    EENTRO =         0.00245008
  eigenvalues    EBANDS =      -115.01042556
  atomic energy  EATOM  =       864.71286919
  ---------------------------------------------------
  free energy    TOTEN  =        81.70624289 eV

  energy without entropy =       81.70379281  energy(sigma->0) =       81.70542620


--------------------------------------------------------------------------------------------------------




----------------------------------------- Iteration    1(   2)  ---------------------------------------


     EDDAV:  cpu time    1.55: real time    1.55
       DOS:  cpu time    0.00: real time    0.00
    --------------------------------------------
      LOOP:  cpu time    1.55: real time    1.56

 eigenvalue-minimisations  :   284
 total energy-change (2. order) :-0.6780588E+02  (-0.6739882E+02)
 number of electron      12.0000000 magnetization       2.0000000
 augmentation part       12.0000000 magnetization       2.0000000

 DIPCOR: dipole corrections for dipol
 direction  3 min pos    99,
 dipolmoment           0.000000      0.000000      0.000009 electrons x Angstroem
 Tr[quadrupol]         0.649090

 energy correction for charged system         0.000000 eV
 dipol+quadrupol energy correction           -0.000000 eV
 added-field ion interaction          0.000007 eV  (added to PSCEN)


 Free energy of the ion-electron system (eV)
  ---------------------------------------------------
  alpha Z        PSCENC =         0.31013466
  Ewald energy   TEWEN  =       218.26681851
  -1/2 Hartree   DENC   =      -938.11556215
  -exchange  EXHF       =         0.00000000
  -V(xc)+E(xc)   XCENC  =        55.12774361
  PAW double counting   =       692.81204765     -696.39983308
  entropy T*S    EENTRO =        -0.00036269
  eigenvalues    EBANDS =      -182.81349636
  atomic energy  EATOM  =       864.71286919
  ---------------------------------------------------
  free energy    TOTEN  =        13.90035933 eV

  energy without entropy =       13.90072201  energy(sigma->0) =       13.90048022


--------------------------------------------------------------------------------------------------------




----------------------------------------- Iteration    1(   3)  ---------------------------------------


     EDDAV:  cpu time    1.35: real time    1.35
       DOS:  cpu time    0.00: real time    0.00
    --------------------------------------------
      LOOP:  cpu time    1.35: real time    1.36

 eigenvalue-minimisations  :   248
 total energy-change (2. order) :-0.1673224E+02  (-0.1308995E+02)
 number of electron      12.0000000 magnetization       2.0000000
 augmentation part       12.0000000 magnetization       2.0000000

 DIPCOR: dipole corrections for dipol
 direction  3 min pos    99,
 dipolmoment           0.000000      0.000000      0.000009 electrons x Angstroem
 Tr[quadrupol]         0.649090

 energy correction for charged system         0.000000 eV
 dipol+quadrupol energy correction           -0.000000 eV
 added-field ion interaction          0.000007 eV  (added to PSCEN)


 Free energy of the ion-electron system (eV)
  ---------------------------------------------------
  alpha Z        PSCENC =         0.31013466
  Ewald energy   TEWEN  =       218.26681851
  -1/2 Hartree   DENC   =      -938.11556215
  -exchange  EXHF       =         0.00000000
  -V(xc)+E(xc)   XCENC  =        55.12774361
  PAW double counting   =       692.81204765     -696.39983308
  entropy T*S    EENTRO =        -0.00458460
  eigenvalues    EBANDS =      -199.54151614
  atomic energy  EATOM  =       864.71286919
  ---------------------------------------------------
  free energy    TOTEN  =        -2.83188238 eV

  energy without entropy =       -2.82729777  energy(sigma->0) =       -2.83035418


--------------------------------------------------------------------------------------------------------




----------------------------------------- Iteration    1(   4)  ---------------------------------------


     EDDAV:  cpu time    1.45: real time    1.45
       DOS:  cpu time    0.00: real time    0.00
    --------------------------------------------
      LOOP:  cpu time    1.45: real time    1.46

 eigenvalue-minimisations  :   267
 total energy-change (2. order) :-0.5929097E+01  (-0.5192895E+01)
 number of electron      12.0000000 magnetization       2.0000000
 augmentation part       12.0000000 magnetization       2.0000000

 DIPCOR: dipole corrections for dipol
 direction  3 min pos    99,
 dipolmoment           0.000000      0.000000      0.000009 electrons x Angstroem
 Tr[quadrupol]         0.649090

 energy correction for charged system         0.000000 eV
 dipol+quadrupol energy correction           -0.000000 eV
 added-field ion interaction          0.000007 eV  (added to PSCEN)


 Free energy of the ion-electron system (eV)
  ---------------------------------------------------
  alpha Z        PSCENC =         0.31013466
  Ewald energy   TEWEN  =       218.26681851
  -1/2 Hartree   DENC   =      -938.11556215
  -exchange  EXHF       =         0.00000000
  -V(xc)+E(xc)   XCENC  =        55.12774361
  PAW double counting   =       692.81204765     -696.39983308
  entropy T*S    EENTRO =         0.00157149
  eigenvalues    EBANDS =      -205.47676947
  atomic energy  EATOM  =       864.71286919
  ---------------------------------------------------
  free energy    TOTEN  =        -8.76097961 eV

  energy without entropy =       -8.76255110  energy(sigma->0) =       -8.76150344


--------------------------------------------------------------------------------------------------------




----------------------------------------- Iteration    1(   5)  ---------------------------------------


     EDDAV:  cpu time    1.21: real time    1.21
       DOS:  cpu time    0.00: real time    0.00
    CHARGE:  cpu time    0.14: real time    0.14
    MIXING:  cpu time    0.01: real time    0.01
    --------------------------------------------
      LOOP:  cpu time    1.37: real time    1.37

 eigenvalue-minimisations  :   211
 total energy-change (2. order) :-0.7956858E+00  (-0.8038960E+00)
 number of electron      11.9999986 magnetization       1.9999995
 augmentation part        1.2407739 magnetization       0.4942566

 DIPCOR: dipole corrections for dipol
 direction  3 min pos    99,
 dipolmoment           0.000000      0.000000      0.000009 electrons x Angstroem
 Tr[quadrupol]         0.649090

 energy correction for charged system         0.000000 eV
 dipol+quadrupol energy correction           -0.000000 eV
 added-field ion interaction          0.000007 eV  (added to PSCEN)


 Broyden mixing:
  rms(total) = 0.68012E+00    rms(broyden)= 0.67747E+00
  rms(prec ) = 0.70081E+00
  weight for this iteration     100.00

 Free energy of the ion-electron system (eV)
  ---------------------------------------------------
  alpha Z        PSCENC =         0.31013466
  Ewald energy   TEWEN  =       218.26681851
  -1/2 Hartree   DENC   =      -938.11556215
  -exchange  EXHF       =         0.00000000
  -V(xc)+E(xc)   XCENC  =        55.12774361
  PAW double counting   =       692.81204765     -696.39983308
  entropy T*S    EENTRO =         0.00622860
  eigenvalues    EBANDS =      -206.27711234
  atomic energy  EATOM  =       864.71286919
  ---------------------------------------------------
  free energy    TOTEN  =        -9.55666537 eV

  energy without entropy =       -9.56289397  energy(sigma->0) =       -9.55874157


--------------------------------------------------------------------------------------------------------




----------------------------------------- Iteration    1(   6)  ---------------------------------------


    POTLOK:  cpu time    0.79: real time    0.79
    SETDIJ:  cpu time    0.01: real time    0.01
     EDDAV:  cpu time    1.15: real time    1.15
       DOS:  cpu time    0.00: real time    0.00
    CHARGE:  cpu time    0.14: real time    0.14
    MIXING:  cpu time    0.01: real time    0.01
    --------------------------------------------
      LOOP:  cpu time    2.10: real time    2.10

 eigenvalue-minimisations  :   198
 total energy-change (2. order) : 0.1936305E+00  (-0.1558420E+00)
 number of electron      11.9999986 magnetization       1.9999991
 augmentation part        1.2176757 magnetization       0.5048762

 DIPCOR: dipole corrections for dipol
 direction  3 min pos    96,
 dipolmoment           0.000000      0.000000      0.000083 electrons x Angstroem
 Tr[quadrupol]         0.655097

 energy correction for charged system         0.000000 eV
 dipol+quadrupol energy correction           -0.000000 eV
 added-field ion interaction          0.000041 eV  (added to PSCEN)


 Broyden mixing:
  rms(total) = 0.31219E+00    rms(broyden)= 0.31176E+00
  rms(prec ) = 0.32270E+00
  weight for this iteration     100.00

 eigenvalues of (default mixing * dielectric matrix)
  average eigenvalue GAMMA=   0.7582
  0.7582

 Free energy of the ion-electron system (eV)
  ---------------------------------------------------
  alpha Z        PSCENC =         0.31016886
  Ewald energy   TEWEN  =       218.26681851
  -1/2 Hartree   DENC   =      -943.95156889
  -exchange  EXHF       =         0.00000000
  -V(xc)+E(xc)   XCENC  =        55.92032918
  PAW double counting   =       789.76130924     -793.38150215
  entropy T*S    EENTRO =         0.00604196
  eigenvalues    EBANDS =      -201.00750074
  atomic energy  EATOM  =       864.71286919
  ---------------------------------------------------
  free energy    TOTEN  =        -9.36303484 eV

  energy without entropy =       -9.36907680  energy(sigma->0) =       -9.36504882


--------------------------------------------------------------------------------------------------------




----------------------------------------- Iteration    1(   7)  ---------------------------------------


    POTLOK:  cpu time    0.78: real time    0.78
    SETDIJ:  cpu time    0.01: real time    0.01
     EDDAV:  cpu time    1.13: real time    1.13
       DOS:  cpu time    0.00: real time    0.00
    CHARGE:  cpu time    0.13: real time    0.13
    MIXING:  cpu time    0.02: real time    0.02
    --------------------------------------------
      LOOP:  cpu time    2.06: real time    2.07

 eigenvalue-minimisations  :   194
 total energy-change (2. order) :-0.1890943E+00  (-0.2314908E-01)
 number of electron      11.9999986 magnetization       1.9999986
 augmentation part        1.2073849 magnetization       0.4933675

 DIPCOR: dipole corrections for dipol
 direction  3 min pos    94,
 dipolmoment           0.000000      0.000000      0.000224 electrons x Angstroem
 Tr[quadrupol]         0.662162

 energy correction for charged system         0.000000 eV
 dipol+quadrupol energy correction           -0.000000 eV
 added-field ion interaction          0.000063 eV  (added to PSCEN)


 Broyden mixing:
  rms(total) = 0.15188E+00    rms(broyden)= 0.15186E+00
  rms(prec ) = 0.15807E+00
  weight for this iteration     100.00

 eigenvalues of (default mixing * dielectric matrix)
  average eigenvalue GAMMA=   1.1636
  1.6167  0.7105

 Free energy of the ion-electron system (eV)
  ---------------------------------------------------
  alpha Z        PSCENC =         0.31019034
  Ewald energy   TEWEN  =       218.26681851
  -1/2 Hartree   DENC   =      -946.07367148
  -exchange  EXHF       =         0.00000000
  -V(xc)+E(xc)   XCENC  =        55.85210373
  PAW double counting   =       843.90686806     -847.65683604
  entropy T*S    EENTRO =         0.00588059
  eigenvalues    EBANDS =      -198.87635206
  atomic energy  EATOM  =       864.71286919
  ---------------------------------------------------
  free energy    TOTEN  =        -9.55212918 eV

  energy without entropy =       -9.55800977  energy(sigma->0) =       -9.55408938


--------------------------------------------------------------------------------------------------------




----------------------------------------- Iteration    1(   8)  ---------------------------------------


    POTLOK:  cpu time    0.78: real time    0.78
    SETDIJ:  cpu time    0.01: real time    0.01
     EDDAV:  cpu time    1.17: real time    1.17
       DOS:  cpu time    0.00: real time    0.00
    CHARGE:  cpu time    0.14: real time    0.14
    MIXING:  cpu time    0.02: real time    0.02
    --------------------------------------------
      LOOP:  cpu time    2.11: real time    2.11

 eigenvalue-minimisations  :   200
 total energy-change (2. order) : 0.6094989E-02  (-0.8907363E-02)
 number of electron      11.9999987 magnetization       1.9999984
 augmentation part        1.1993289 magnetization       0.4941674

 DIPCOR: dipole corrections for dipol
 direction  3 min pos    96,
 dipolmoment           0.000000      0.000000      0.000384 electrons x Angstroem
 Tr[quadrupol]         0.662472

 energy correction for charged system         0.000000 eV
 dipol+quadrupol energy correction           -0.000000 eV
 added-field ion interaction          0.000192 eV  (added to PSCEN)


 Broyden mixing:
  rms(total) = 0.53461E-01    rms(broyden)= 0.53300E-01
  rms(prec ) = 0.54601E-01
  weight for this iteration     100.00

 eigenvalues of (default mixing * dielectric matrix)
  average eigenvalue GAMMA=   1.1223
  1.9363  0.7701  0.6605

 Free energy of the ion-electron system (eV)
  ---------------------------------------------------
  alpha Z        PSCENC =         0.31031957
  Ewald energy   TEWEN  =       218.26681851
  -1/2 Hartree   DENC   =      -947.91365340
  -exchange  EXHF       =         0.00000000
  -V(xc)+E(xc)   XCENC  =        56.01016634
  PAW double counting   =       914.89268140     -918.64409139
  entropy T*S    EENTRO =         0.00588898
  eigenvalues    EBANDS =      -197.18703339
  atomic energy  EATOM  =       864.71286919
  ---------------------------------------------------
  free energy    TOTEN  =        -9.54603419 eV

  energy without entropy =       -9.55192317  energy(sigma->0) =       -9.54799719


--------------------------------------------------------------------------------------------------------




----------------------------------------- Iteration    1(   9)  ---------------------------------------


    POTLOK:  cpu time    0.78: real time    0.78
    SETDIJ:  cpu time    0.01: real time    0.01
     EDDAV:  cpu time    1.13: real time    1.13
       DOS:  cpu time    0.00: real time    0.00
    CHARGE:  cpu time    0.13: real time    0.13
    MIXING:  cpu time    0.02: real time    0.02
    --------------------------------------------
      LOOP:  cpu time    2.07: real time    2.07

 eigenvalue-minimisations  :   185
 total energy-change (2. order) :-0.3285294E-02  (-0.6007987E-03)
 number of electron      11.9999987 magnetization       1.9999982
 augmentation part        1.1995545 magnetization       0.4934225

 DIPCOR: dipole corrections for dipol
 direction  3 min pos    97,
 dipolmoment           0.000000      0.000000      0.000512 electrons x Angstroem
 Tr[quadrupol]         0.663181

 energy correction for charged system         0.000000 eV
 dipol+quadrupol energy correction           -0.000000 eV
 added-field ion interaction          0.000312 eV  (added to PSCEN)


 Broyden mixing:
  rms(total) = 0.31979E-01    rms(broyden)= 0.31870E-01
  rms(prec ) = 0.33153E-01
  weight for this iteration     100.00

 eigenvalues of (default mixing * dielectric matrix)
  average eigenvalue GAMMA=   1.2399
  2.0629  1.5006  0.7463  0.6499

 Free energy of the ion-electron system (eV)
  ---------------------------------------------------
  alpha Z        PSCENC =         0.31043980
  Ewald energy   TEWEN  =       218.26681851
  -1/2 Hartree   DENC   =      -947.91209593
  -exchange  EXHF       =         0.00000000
  -V(xc)+E(xc)   XCENC  =        56.01412826
  PAW double counting   =       929.79693119     -933.54742658
  entropy T*S    EENTRO =         0.00618948
  eigenvalues    EBANDS =      -197.19717339
  atomic energy  EATOM  =       864.71286919
  ---------------------------------------------------
  free energy    TOTEN  =        -9.54931949 eV

  energy without entropy =       -9.55550897  energy(sigma->0) =       -9.55138265


--------------------------------------------------------------------------------------------------------




----------------------------------------- Iteration    1(  10)  ---------------------------------------


    POTLOK:  cpu time    0.78: real time    0.78
    SETDIJ:  cpu time    0.01: real time    0.01
     EDDAV:  cpu time    1.08: real time    1.08
       DOS:  cpu time    0.00: real time    0.00
    CHARGE:  cpu time    0.13: real time    0.13
    MIXING:  cpu time    0.02: real time    0.02
    --------------------------------------------
      LOOP:  cpu time    2.01: real time    2.02

 eigenvalue-minimisations  :   182
 total energy-change (2. order) :-0.1798793E-03  (-0.1135522E-03)
 number of electron      11.9999987 magnetization       1.9999981
 augmentation part        1.2004066 magnetization       0.4938887

 DIPCOR: dipole corrections for dipol
 direction  3 min pos    92,
 dipolmoment           0.000000      0.000000      0.000058 electrons x Angstroem
 Tr[quadrupol]         0.666907

 energy correction for charged system         0.000000 eV
 dipol+quadrupol energy correction           -0.000000 eV
 added-field ion interaction          0.000004 eV  (added to PSCEN)


 Broyden mixing:
  rms(total) = 0.13243E-01    rms(broyden)= 0.13228E-01
  rms(prec ) = 0.13748E-01
  weight for this iteration     100.00

 eigenvalues of (default mixing * dielectric matrix)
  average eigenvalue GAMMA=   1.1548
  2.1557  1.4451  0.7966  0.6883  0.6883

 Free energy of the ion-electron system (eV)
  ---------------------------------------------------
  alpha Z        PSCENC =         0.31013099
  Ewald energy   TEWEN  =       218.26681851
  -1/2 Hartree   DENC   =      -947.85883007
  -exchange  EXHF       =         0.00000000
  -V(xc)+E(xc)   XCENC  =        56.00755553
  PAW double counting   =       941.64742182     -945.37918184
  entropy T*S    EENTRO =         0.00618730
  eigenvalues    EBANDS =      -197.26247078
  atomic energy  EATOM  =       864.71286919
  ---------------------------------------------------
  free energy    TOTEN  =        -9.54949936 eV

  energy without entropy =       -9.55568667  energy(sigma->0) =       -9.55156180


--------------------------------------------------------------------------------------------------------




----------------------------------------- Iteration    1(  11)  ---------------------------------------


    POTLOK:  cpu time    0.78: real time    0.78
    SETDIJ:  cpu time    0.01: real time    0.01
     EDDAV:  cpu time    1.12: real time    1.12
       DOS:  cpu time    0.00: real time    0.00
    CHARGE:  cpu time    0.13: real time    0.18
    MIXING:  cpu time    0.02: real time    0.02
    --------------------------------------------
      LOOP:  cpu time    2.07: real time    2.11

 eigenvalue-minimisations  :   194
 total energy-change (2. order) :-0.1407423E-02  (-0.6313476E-04)
 number of electron      11.9999987 magnetization       1.9999981
 augmentation part        1.2002883 magnetization       0.4937327

 DIPCOR: dipole corrections for dipol
 direction  3 min pos    92,
 dipolmoment           0.000000      0.000000      0.000049 electrons x Angstroem
 Tr[quadrupol]         0.668887

 energy correction for charged system         0.000000 eV
 dipol+quadrupol energy correction           -0.000000 eV
 added-field ion interaction          0.000003 eV  (added to PSCEN)


 Broyden mixing:
  rms(total) = 0.22292E-01    rms(broyden)= 0.22002E-01
  rms(prec ) = 0.22594E-01
  weight for this iteration     100.00

 eigenvalues of (default mixing * dielectric matrix)
  average eigenvalue GAMMA=   1.0307
  2.1471  1.3016  0.7359  0.6416  0.6791  0.6791

 Free energy of the ion-electron system (eV)
  ---------------------------------------------------
  alpha Z        PSCENC =         0.31013042
  Ewald energy   TEWEN  =       218.26681851
  -1/2 Hartree   DENC   =      -947.97209048
  -exchange  EXHF       =         0.00000000
  -V(xc)+E(xc)   XCENC  =        56.01112114
  PAW double counting   =       945.01687595     -948.74804178
  entropy T*S    EENTRO =         0.00579796
  eigenvalues    EBANDS =      -197.15438770
  atomic energy  EATOM  =       864.71286919
  ---------------------------------------------------
  free energy    TOTEN  =        -9.55090679 eV

  energy without entropy =       -9.55670475  energy(sigma->0) =       -9.55283944


--------------------------------------------------------------------------------------------------------




----------------------------------------- Iteration    1(  12)  ---------------------------------------


    POTLOK:  cpu time    0.79: real time    0.79
    SETDIJ:  cpu time    0.01: real time    0.01
     EDDAV:  cpu time    1.08: real time    1.08
       DOS:  cpu time    0.00: real time    0.00
    --------------------------------------------
      LOOP:  cpu time    1.87: real time    1.87

 eigenvalue-minimisations  :   182
 total energy-change (2. order) :-0.7281837E-04  (-0.1394086E-04)
 number of electron      11.9999987 magnetization       1.9999981
 augmentation part        1.2002883 magnetization       0.4937327

 DIPCOR: dipole corrections for dipol
 direction  3 min pos    92,
 dipolmoment           0.000000      0.000000      0.000048 electrons x Angstroem
 Tr[quadrupol]         0.669035

 energy correction for charged system         0.000000 eV
 dipol+quadrupol energy correction           -0.000000 eV
 added-field ion interaction          0.000003 eV  (added to PSCEN)


 Free energy of the ion-electron system (eV)
  ---------------------------------------------------
  alpha Z        PSCENC =         0.31013038
  Ewald energy   TEWEN  =       218.26681851
  -1/2 Hartree   DENC   =      -947.96837673
  -exchange  EXHF       =         0.00000000
  -V(xc)+E(xc)   XCENC  =        56.01119606
  PAW double counting   =       944.81603957     -948.54673999
  entropy T*S    EENTRO =         0.00580771
  eigenvalues    EBANDS =      -197.15872430
  atomic energy  EATOM  =       864.71286919
  ---------------------------------------------------
  free energy    TOTEN  =        -9.55097961 eV

  energy without entropy =       -9.55678732  energy(sigma->0) =       -9.55291551


--------------------------------------------------------------------------------------------------------




 average (electrostatic) potential at core
  the test charge radii are     0.7215
  (the norm of the test charge is              1.0000)
       1 -83.9611       2 -83.9611
 
 
 
 E-fermi :  -6.1875     XC(G=0):  -0.4725     alpha+bet : -0.0836


 spin component 1

 k-point   1 :       0.0000    0.0000    0.2500
  band No.  band energies     occupation 
      1     -34.3981      1.00000
      2     -19.9572      1.00000
      3     -14.0739      1.00000
      4     -14.0664      1.00000
      5     -13.6200      1.00000
      6      -6.2739      1.00462
      7      -6.2696      0.99533
      8      -0.4043      0.00000
      9       0.1567      0.00000
     10       0.6459      0.00000
     11       0.6782      0.00000

 k-point   2 :       0.3333    0.0000    0.2500
  band No.  band energies     occupation 
      1     -34.3981      1.00000
      2     -19.9572      1.00000
      3     -14.0739      1.00000
      4     -14.0664      1.00000
      5     -13.6200      1.00000
      6      -6.2739      1.00463
      7      -6.2697      0.99539
      8      -0.2523      0.00000
      9       0.2463      0.00000
     10       0.3298      0.00000
     11       0.7761      0.00000

 k-point   3 :       0.0000    0.3333    0.2500
  band No.  band energies     occupation 
      1     -34.3981      1.00000
      2     -19.9572      1.00000
      3     -14.0739      1.00000
      4     -14.0664      1.00000
      5     -13.6200      1.00000
      6      -6.2739      1.00463
      7      -6.2697      0.99536
      8      -0.3014      0.00000
      9       0.1200      0.00000
     10       0.2811      0.00000
     11       0.6438      0.00000

 k-point   4 :       0.3333    0.3333    0.2500
  band No.  band energies     occupation 
      1     -34.3981      1.00000
      2     -19.9572      1.00000
      3     -14.0739      1.00000
      4     -14.0664      1.00000
      5     -13.6200      1.00000
      6      -6.2739      1.00466
      7      -6.2696      0.99535
      8      -0.1505      0.00000
      9       0.2710      0.00000
     10       0.3577      0.00000
     11       0.4477      0.00000

 spin component 2

 k-point   1 :       0.0000    0.0000    0.2500
  band No.  band energies     occupation 
      1     -33.2340      1.00000
      2     -18.1719      1.00000
      3     -12.6350      1.00000
      4     -12.2466      1.00000
      5     -12.2120      1.00000
      6      -3.9923     -0.00000
      7      -3.9552     -0.00000
      8      -0.2977      0.00000
      9       0.1620      0.00000
     10       0.7450      0.00000
     11       0.7529      0.00000

 k-point   2 :       0.3333    0.0000    0.2500
  band No.  band energies     occupation 
      1     -33.2340      1.00000
      2     -18.1719      1.00000
      3     -12.6350      1.00000
      4     -12.2466      1.00000
      5     -12.2120      1.00000
      6      -3.9923     -0.00000
      7      -3.9553     -0.00000
      8      -0.1379      0.00000
      9       0.3050      0.00000
     10       0.3710      0.00000
     11       0.8094      0.00000

 k-point   3 :       0.0000    0.3333    0.2500
  band No.  band energies     occupation 
      1     -33.2340      1.00000
      2     -18.1719      1.00000
      3     -12.6350      1.00000
      4     -12.2466      1.00000
      5     -12.2120      1.00000
      6      -3.9923     -0.00000
      7      -3.9552     -0.00000
      8      -0.1834      0.00000
      9       0.1929      0.00000
     10       0.2916      0.00000
     11       0.6495      0.00000

 k-point   4 :       0.3333    0.3333    0.2500
  band No.  band energies     occupation 
      1     -33.2340      1.00000
      2     -18.1719      1.00000
      3     -12.6350      1.00000
      4     -12.2466      1.00000
      5     -12.2120      1.00000
      6      -3.9923     -0.00000
      7      -3.9553     -0.00000
      8      -0.0236      0.00000
      9       0.3518      0.00000
     10       0.4286      0.00000
     11       0.4897      0.00000


--------------------------------------------------------------------------------------------------------


 soft charge-density along one line, spin component           1
         0         1         2         3         4         5         6         7         8         9
 total charge-density along one line
 
 soft charge-density along one line, spin component           2
         0         1         2         3         4         5         6         7         8         9
 total charge-density along one line
 
 pseudopotential strength for first ion, spin component:           1
 14.582 -17.931  -0.000   0.166  -0.000   0.000  -0.209   0.000
-17.931  22.083   0.000  -0.211   0.000  -0.000   0.266  -0.000
 -0.000   0.000 -11.418   0.000  -0.000  14.305  -0.000   0.000
  0.166  -0.211   0.000 -11.467   0.000  -0.000  14.358  -0.000
 -0.000   0.000  -0.000   0.000 -11.417   0.000  -0.000  14.304
  0.000  -0.000  14.305  -0.000   0.000 -17.882   0.000  -0.000
 -0.209   0.266  -0.000  14.358  -0.000   0.000 -17.935   0.000
  0.000  -0.000   0.000  -0.000  14.304  -0.000   0.000 -17.880
 pseudopotential strength for first ion, spin component:           2
 14.053 -17.248  -0.000   0.166  -0.000   0.000  -0.210   0.000
-17.248  21.202   0.000  -0.211   0.000  -0.000   0.267  -0.000
 -0.000   0.000 -10.806   0.000   0.000  13.446  -0.000  -0.000
  0.166  -0.211   0.000 -11.257  -0.000  -0.000  14.063   0.000
 -0.000   0.000   0.000  -0.000 -10.796  -0.000   0.000  13.433
  0.000  -0.000  13.446  -0.000  -0.000 -16.670   0.000   0.000
 -0.210   0.267  -0.000  14.063   0.000   0.000 -17.518  -0.000
  0.000  -0.000  -0.000   0.000  13.433   0.000  -0.000 -16.652
 total augmentation occupancy for first ion, spin component:           1
  2.708   0.467   0.000  -0.759   0.000   0.000  -0.355   0.000
  0.467   0.242   0.000  -0.687   0.000   0.000  -0.219   0.000
  0.000   0.000   1.763   0.000   0.000   0.116   0.000   0.000
 -0.759  -0.687   0.000   2.769   0.000   0.000   0.664   0.000
  0.000   0.000   0.000   0.000   1.763   0.000   0.000   0.116
  0.000   0.000   0.116   0.000   0.000   0.044   0.000   0.000
 -0.355  -0.219   0.000   0.664   0.000   0.000   0.202   0.000
  0.000   0.000   0.000   0.000   0.116   0.000   0.000   0.044
 total augmentation occupancy for first ion, spin component:           2
 -0.108  -0.062   0.000   0.023   0.000   0.000   0.018   0.000
 -0.062  -0.011   0.000   0.012   0.000   0.000   0.007   0.000
  0.000   0.000   0.292   0.000   0.000  -0.105   0.000   0.000
  0.023   0.012   0.000  -0.038   0.000   0.000  -0.019   0.000
  0.000   0.000   0.000   0.000   0.291   0.000   0.000  -0.106
  0.000   0.000  -0.105   0.000   0.000   0.011   0.000   0.000
  0.018   0.007   0.000  -0.019   0.000   0.000  -0.006   0.000
  0.000   0.000   0.000   0.000  -0.106   0.000   0.000   0.011


------------------------ aborting loop because EDIFF is reached ----------------------------------------


    CHARGE:  cpu time    0.13: real time    0.13
    FORLOC:  cpu time    0.01: real time    0.01
    FORNL :  cpu time    0.28: real time    0.28
    STRESS:  cpu time    0.88: real time    0.88
    FORCOR:  cpu time    0.79: real time    0.79
    FORHAR:  cpu time    0.08: real time    0.08
    MIXING:  cpu time    0.02: real time    0.02

  FORCE on cell =-STRESS in cart. coord.  units (eV):
  Direction    XX          YY          ZZ          XY          YZ          ZX
  --------------------------------------------------------------------------------------
  Alpha Z     0.31013     0.31013     0.31013
  Ewald     -31.97431   -67.74131   317.98247     0.00000    -0.00000    -0.00000
  Hartree   295.94526   261.12487   391.23593    -0.00000    -0.00000    -0.00000
  E(xc)     -59.78212   -59.78768   -58.54999    -0.00000     0.00000     0.00000
  Local    -447.64743  -377.43390  -839.42307    -0.00000     0.00000    -0.00000
  n-local   -44.00445   -44.07219   -49.90381    -0.00011    -0.00001     0.00009
  augment    13.44281    13.46098    10.56083     0.00000    -0.00000     0.00000
  Kinetic   273.84199   274.01158   237.11860    -0.00008    -0.00001     0.00005
  Fock        0.00000     0.00000     0.00000     0.00000     0.00000     0.00000
  -------------------------------------------------------------------------------------
  Total       0.13188    -0.12751     9.33108     0.00000     0.00000     0.00000
  in kB       0.11789    -0.11399     8.34162     0.00000     0.00000     0.00000
  external pressure =        2.78 kB  Pullay stress =        0.00 kB


 VOLUME and BASIS-vectors are now :
 -----------------------------------------------------------------------------
  energy-cutoff  :      500.00
  volume of cell :     1792.22
      direct lattice vectors                 reciprocal lattice vectors
    10.160000000  0.000000000  0.000000000     0.098425197  0.000000000  0.000000000
     0.000000000 11.760000000  0.000000000     0.000000000  0.085034014  0.000000000
     0.000000000  0.000000000 15.000000000     0.000000000  0.000000000  0.066666667

  length of vectors
    10.160000000 11.760000000 15.000000000     0.098425197  0.085034014  0.066666667


 FORCES acting on ions
    electron-ion (+dipol)            ewald-force                    non-local-force                 convergence-correction
 -----------------------------------------------------------------------------------------------
   0.304E-14 -.725E-14 -.324E+03   0.276E-16 -.498E-17 0.391E+03   0.000E+00 0.000E+00 -.594E+02   -.247E-13 -.314E-13 0.674E-01
   -.119E-14 -.628E-13 0.324E+03   0.107E-15 0.412E-16 -.391E+03   0.000E+00 0.000E+00 0.594E+02   -.229E-13 -.738E-13 -.674E-01
 -----------------------------------------------------------------------------------------------
   0.184E-14 -.701E-13 0.512E-04   0.135E-15 0.362E-16 0.000E+00   0.000E+00 0.000E+00 -.711E-14   -.477E-13 -.105E-12 0.348E-05
 
 
 POSITION                                       TOTAL-FORCE (eV/Angst)
 -----------------------------------------------------------------------------------
      0.00000      0.00000      1.15095         0.000000      0.000000      8.151036
      0.00000      0.00000      0.00000         0.000000      0.000000     -8.151036
 -----------------------------------------------------------------------------------
    total drift:                               -0.000000     -0.000000      0.000055


--------------------------------------------------------------------------------------------------------



  FREE ENERGIE OF THE ION-ELECTRON SYSTEM (eV)
  ---------------------------------------------------
  free  energy   TOTEN  =        -9.55097961 eV

  energy  without entropy=       -9.55678732  energy(sigma->0) =       -9.55291551
 


--------------------------------------------------------------------------------------------------------


    POTLOK:  cpu time    0.82: real time    0.82


--------------------------------------------------------------------------------------------------------




--------------------------------------------------------------------------------------------------------


    WAVPRE:  cpu time    0.07: real time    0.07
 FEWALD executed in parallel
    FEWALD:  cpu time    0.00: real time    0.00

 real space projection operators:
  total allocation   :         86.25 KBytes
  max/ min on nodes  :         22.75         19.75

    ORTHCH:  cpu time    0.10: real time    0.10
     LOOP+:  cpu time   25.39: real time   25.50


----------------------------------------- Iteration    2(   1)  ---------------------------------------


    POTLOK:  cpu time    0.78: real time    0.78
    SETDIJ:  cpu time    0.01: real time    0.01
     EDDAV:  cpu time    1.06: real time    1.06
       DOS:  cpu time    0.00: real time    0.00
    CHARGE:  cpu time    0.13: real time    0.13
    MIXING:  cpu time    0.01: real time    0.01
    --------------------------------------------
      LOOP:  cpu time    2.00: real time    2.00

 eigenvalue-minimisations  :   176
 total energy-change (2. order) : 0.9739977E+01  (-0.1580134E+03)
 number of electron      11.9999971 magnetization       1.9999988
 augmentation part        0.8437391 magnetization       0.4210912

 DIPCOR: dipole corrections for dipol
 direction  3 min pos    92,
 dipolmoment           0.000000      0.000000      0.000043 electrons x Angstroem
 Tr[quadrupol]         0.670106

 energy correction for charged system         0.000000 eV
 dipol+quadrupol energy correction           -0.000000 eV
 added-field ion interaction          0.000003 eV  (added to PSCEN)


 Broyden mixing:
  rms(total) = 0.14236E+01    rms(broyden)= 0.14223E+01
  rms(prec ) = 0.14914E+01
  weight for this iteration     100.00

 Free energy of the ion-electron system (eV)
  ---------------------------------------------------
  alpha Z        PSCENC =         0.31013005
  Ewald energy   TEWEN  =        35.56439175
  -1/2 Hartree   DENC   =      -796.99488203
  -exchange  EXHF       =         0.00000000
  -V(xc)+E(xc)   XCENC  =        54.50431522
  PAW double counting   =       945.51711861     -949.24680739
  entropy T*S    EENTRO =         0.00582228
  eigenvalues    EBANDS =      -154.18388755
  atomic energy  EATOM  =       864.71286919
  ---------------------------------------------------
  free energy    TOTEN  =         0.18907013 eV

  energy without entropy =        0.18324786  energy(sigma->0) =        0.18712938


--------------------------------------------------------------------------------------------------------




----------------------------------------- Iteration    2(   2)  ---------------------------------------


    POTLOK:  cpu time    0.78: real time    0.78
    SETDIJ:  cpu time    0.01: real time    0.01
     EDDAV:  cpu time    1.08: real time    1.08
       DOS:  cpu time    0.00: real time    0.00
    CHARGE:  cpu time    0.14: real time    0.14
    MIXING:  cpu time    0.01: real time    0.01
    --------------------------------------------
      LOOP:  cpu time    2.02: real time    2.02

 eigenvalue-minimisations  :   182
 total energy-change (2. order) :-0.4617571E+01  (-0.5401726E+01)
 number of electron      11.9999965 magnetization       1.9999987
 augmentation part        1.0197420 magnetization       0.4915637

 DIPCOR: dipole corrections for dipol
 direction  3 min pos    94,
 dipolmoment           0.000000      0.000000     -0.000365 electrons x Angstroem
 Tr[quadrupol]         0.634471

 energy correction for charged system         0.000000 eV
 dipol+quadrupol energy correction           -0.000000 eV
 added-field ion interaction         -0.000102 eV  (added to PSCEN)


 Broyden mixing:
  rms(total) = 0.51148E+00    rms(broyden)= 0.51029E+00
  rms(prec ) = 0.52195E+00
  weight for this iteration     100.00

 eigenvalues of (default mixing * dielectric matrix)
  average eigenvalue GAMMA=   0.7808
  0.7808

 Free energy of the ion-electron system (eV)
  ---------------------------------------------------
  alpha Z        PSCENC =         0.31002503
  Ewald energy   TEWEN  =        35.56439175
  -1/2 Hartree   DENC   =      -771.01535012
  -exchange  EXHF       =         0.00000000
  -V(xc)+E(xc)   XCENC  =        52.69660555
  PAW double counting   =       850.34706178     -853.79945160
  entropy T*S    EENTRO =         0.00581755
  eigenvalues    EBANDS =      -183.25047015
  atomic energy  EATOM  =       864.71286919
  ---------------------------------------------------
  free energy    TOTEN  =        -4.42850102 eV

  energy without entropy =       -4.43431857  energy(sigma->0) =       -4.43044020


--------------------------------------------------------------------------------------------------------




----------------------------------------- Iteration    2(   3)  ---------------------------------------


    POTLOK:  cpu time    0.78: real time    0.78
    SETDIJ:  cpu time    0.01: real time    0.01
     EDDAV:  cpu time    1.45: real time    1.45
       DOS:  cpu time    0.00: real time    0.00
    CHARGE:  cpu time    0.15: real time    0.15
    MIXING:  cpu time    0.02: real time    0.02
    --------------------------------------------
      LOOP:  cpu time    2.39: real time    2.40

 eigenvalue-minimisations  :   265
 total energy-change (2. order) :-0.5576229E+00  (-0.1239269E+00)
 number of electron      11.9999965 magnetization       1.9999986
 augmentation part        1.0157705 magnetization       0.4855589

 DIPCOR: dipole corrections for dipol
 direction  3 min pos    91,
 dipolmoment           0.000000      0.000000      0.000086 electrons x Angstroem
 Tr[quadrupol]         0.618863

 energy correction for charged system         0.000000 eV
 dipol+quadrupol energy correction           -0.000000 eV
 added-field ion interaction         -0.000004 eV  (added to PSCEN)


 Broyden mixing:
  rms(total) = 0.27479E+00    rms(broyden)= 0.27473E+00
  rms(prec ) = 0.28500E+00
  weight for this iteration     100.00

 eigenvalues of (default mixing * dielectric matrix)
  average eigenvalue GAMMA=   0.8245
  0.8245  0.8245

 Free energy of the ion-electron system (eV)
  ---------------------------------------------------
  alpha Z        PSCENC =         0.31012321
  Ewald energy   TEWEN  =        35.56439175
  -1/2 Hartree   DENC   =      -774.16953919
  -exchange  EXHF       =         0.00000000
  -V(xc)+E(xc)   XCENC  =        52.58693181
  PAW double counting   =       801.45140786     -804.89708082
  entropy T*S    EENTRO =         0.00582424
  eigenvalues    EBANDS =      -180.55105192
  atomic energy  EATOM  =       864.71286919
  ---------------------------------------------------
  free energy    TOTEN  =        -4.98612388 eV

  energy without entropy =       -4.99194812  energy(sigma->0) =       -4.98806529


--------------------------------------------------------------------------------------------------------




----------------------------------------- Iteration    2(   4)  ---------------------------------------


    POTLOK:  cpu time    0.78: real time    0.78
    SETDIJ:  cpu time    0.01: real time    0.01
     EDDAV:  cpu time    1.19: real time    1.19
       DOS:  cpu time    0.00: real time    0.00
    CHARGE:  cpu time    0.14: real time    0.14
    MIXING:  cpu time    0.02: real time    0.02
    --------------------------------------------
      LOOP:  cpu time    2.13: real time    2.15

 eigenvalue-minimisations  :   207
 total energy-change (2. order) :-0.3989539E-01  (-0.1145749E-01)
 number of electron      11.9999966 magnetization       1.9999984
 augmentation part        1.0023114 magnetization       0.4791225

 DIPCOR: dipole corrections for dipol
 direction  3 min pos    90,
 dipolmoment           0.000000      0.000000      0.000314 electrons x Angstroem
 Tr[quadrupol]         0.595727

 energy correction for charged system         0.000000 eV
 dipol+quadrupol energy correction           -0.000000 eV
 added-field ion interaction         -0.000050 eV  (added to PSCEN)


 Broyden mixing:
  rms(total) = 0.15101E+00    rms(broyden)= 0.15101E+00
  rms(prec ) = 0.15519E+00
  weight for this iteration     100.00

 eigenvalues of (default mixing * dielectric matrix)
  average eigenvalue GAMMA=   1.2527
  2.1974  0.8818  0.6790

 Free energy of the ion-electron system (eV)
  ---------------------------------------------------
  alpha Z        PSCENC =         0.31007755
  Ewald energy   TEWEN  =        35.56439175
  -1/2 Hartree   DENC   =      -777.35404338
  -exchange  EXHF       =         0.00000000
  -V(xc)+E(xc)   XCENC  =        52.73066053
  PAW double counting   =       759.32043559     -762.81179480
  entropy T*S    EENTRO =         0.00583346
  eigenvalues    EBANDS =      -177.50444917
  atomic energy  EATOM  =       864.71286919
  ---------------------------------------------------
  free energy    TOTEN  =        -5.02601927 eV

  energy without entropy =       -5.03185273  energy(sigma->0) =       -5.02796376


--------------------------------------------------------------------------------------------------------




----------------------------------------- Iteration    2(   5)  ---------------------------------------


    POTLOK:  cpu time    0.78: real time    0.78
    SETDIJ:  cpu time    0.01: real time    0.01
     EDDAV:  cpu time    1.09: real time    1.09
       DOS:  cpu time    0.00: real time    0.00
    CHARGE:  cpu time    0.14: real time    0.14
    MIXING:  cpu time    0.02: real time    0.02
    --------------------------------------------
      LOOP:  cpu time    2.03: real time    2.04

 eigenvalue-minimisations  :   185
 total energy-change (2. order) :-0.4215711E-01  (-0.7749086E-02)
 number of electron      11.9999966 magnetization       1.9999984
 augmentation part        0.9904497 magnetization       0.4756154

 DIPCOR: dipole corrections for dipol
 direction  3 min pos    90,
 dipolmoment           0.000000      0.000000      0.000283 electrons x Angstroem
 Tr[quadrupol]         0.555653

 energy correction for charged system         0.000000 eV
 dipol+quadrupol energy correction           -0.000000 eV
 added-field ion interaction         -0.000045 eV  (added to PSCEN)


 Broyden mixing:
  rms(total) = 0.45919E-01    rms(broyden)= 0.45878E-01
  rms(prec ) = 0.49945E-01
  weight for this iteration     100.00

 eigenvalues of (default mixing * dielectric matrix)
  average eigenvalue GAMMA=   1.1416
  2.3591  0.7919  0.7076  0.7076

 Free energy of the ion-electron system (eV)
  ---------------------------------------------------
  alpha Z        PSCENC =         0.31008256
  Ewald energy   TEWEN  =        35.56439175
  -1/2 Hartree   DENC   =      -780.16803892
  -exchange  EXHF       =         0.00000000
  -V(xc)+E(xc)   XCENC  =        52.86549452
  PAW double counting   =       701.13873162     -704.59293104
  entropy T*S    EENTRO =         0.00583997
  eigenvalues    EBANDS =      -174.90461603
  atomic energy  EATOM  =       864.71286919
  ---------------------------------------------------
  free energy    TOTEN  =        -5.06817638 eV

  energy without entropy =       -5.07401635  energy(sigma->0) =       -5.07012304


--------------------------------------------------------------------------------------------------------




----------------------------------------- Iteration    2(   6)  ---------------------------------------


    POTLOK:  cpu time    0.78: real time    0.78
    SETDIJ:  cpu time    0.01: real time    0.01
     EDDAV:  cpu time    1.08: real time    1.08
       DOS:  cpu time    0.00: real time    0.00
    CHARGE:  cpu time    0.14: real time    0.14
    MIXING:  cpu time    0.02: real time    0.02
    --------------------------------------------
      LOOP:  cpu time    2.03: real time    2.03

 eigenvalue-minimisations  :   182
 total energy-change (2. order) :-0.7026950E-02  (-0.5903980E-03)
 number of electron      11.9999966 magnetization       1.9999983
 augmentation part        0.9932543 magnetization       0.4765318

 DIPCOR: dipole corrections for dipol
 direction  3 min pos    90,
 dipolmoment           0.000000      0.000000      0.000225 electrons x Angstroem
 Tr[quadrupol]         0.545215

 energy correction for charged system         0.000000 eV
 dipol+quadrupol energy correction           -0.000000 eV
 added-field ion interaction         -0.000036 eV  (added to PSCEN)


 Broyden mixing:
  rms(total) = 0.25947E-01    rms(broyden)= 0.25946E-01
  rms(prec ) = 0.28654E-01
  weight for this iteration     100.00

 eigenvalues of (default mixing * dielectric matrix)
  average eigenvalue GAMMA=   1.1987
  2.4612  1.0830  1.0830  0.7274  0.6392

 Free energy of the ion-electron system (eV)
  ---------------------------------------------------
  alpha Z        PSCENC =         0.31009173
  Ewald energy   TEWEN  =        35.56439175
  -1/2 Hartree   DENC   =      -779.56211569
  -exchange  EXHF       =         0.00000000
  -V(xc)+E(xc)   XCENC  =        52.81656590
  PAW double counting   =       697.26548005     -700.70766438
  entropy T*S    EENTRO =         0.00582974
  eigenvalues    EBANDS =      -175.48065161
  atomic energy  EATOM  =       864.71286919
  ---------------------------------------------------
  free energy    TOTEN  =        -5.07520333 eV

  energy without entropy =       -5.08103307  energy(sigma->0) =       -5.07714658


--------------------------------------------------------------------------------------------------------




----------------------------------------- Iteration    2(   7)  ---------------------------------------


    POTLOK:  cpu time    0.78: real time    0.78
    SETDIJ:  cpu time    0.01: real time    0.01
     EDDAV:  cpu time    1.05: real time    1.05
       DOS:  cpu time    0.00: real time    0.00
    CHARGE:  cpu time    0.14: real time    0.14
    MIXING:  cpu time    0.02: real time    0.02
    --------------------------------------------
      LOOP:  cpu time    2.00: real time    2.01

 eigenvalue-minimisations  :   176
 total energy-change (2. order) :-0.4964837E-02  (-0.7281600E-03)
 number of electron      11.9999966 magnetization       1.9999983
 augmentation part        0.9971905 magnetization       0.4780325

 DIPCOR: dipole corrections for dipol
 direction  3 min pos    90,
 dipolmoment           0.000000      0.000000      0.000081 electrons x Angstroem
 Tr[quadrupol]         0.525152

 energy correction for charged system         0.000000 eV
 dipol+quadrupol energy correction           -0.000000 eV
 added-field ion interaction         -0.000013 eV  (added to PSCEN)


 Broyden mixing:
  rms(total) = 0.42737E-02    rms(broyden)= 0.42208E-02
  rms(prec ) = 0.51042E-02
  weight for this iteration     100.00

 eigenvalues of (default mixing * dielectric matrix)
  average eigenvalue GAMMA=   1.1592
  2.5087  1.1315  1.1315  0.8536  0.7100  0.6201

 Free energy of the ion-electron system (eV)
  ---------------------------------------------------
  alpha Z        PSCENC =         0.31011463
  Ewald energy   TEWEN  =        35.56439175
  -1/2 Hartree   DENC   =      -778.69178739
  -exchange  EXHF       =         0.00000000
  -V(xc)+E(xc)   XCENC  =        52.75259908
  PAW double counting   =       694.51128011     -697.93058691
  entropy T*S    EENTRO =         0.00580756
  eigenvalues    EBANDS =      -176.31485618
  atomic energy  EATOM  =       864.71286919
  ---------------------------------------------------
  free energy    TOTEN  =        -5.08016817 eV

  energy without entropy =       -5.08597573  energy(sigma->0) =       -5.08210402


--------------------------------------------------------------------------------------------------------




----------------------------------------- Iteration    2(   8)  ---------------------------------------


    POTLOK:  cpu time    0.78: real time    0.78
    SETDIJ:  cpu time    0.01: real time    0.01
     EDDAV:  cpu time    1.00: real time    1.00
       DOS:  cpu time    0.00: real time    0.00
    CHARGE:  cpu time    0.15: real time    0.15
    MIXING:  cpu time    0.02: real time    0.02
    --------------------------------------------
      LOOP:  cpu time    1.96: real time    1.97

 eigenvalue-minimisations  :   162
 total energy-change (2. order) :-0.1586294E-02  (-0.1369316E-04)
 number of electron      11.9999966 magnetization       1.9999983
 augmentation part        0.9973517 magnetization       0.4781569

 DIPCOR: dipole corrections for dipol
 direction  3 min pos    90,
 dipolmoment           0.000000      0.000000      0.000001 electrons x Angstroem
 Tr[quadrupol]         0.513703

 energy correction for charged system         0.000000 eV
 dipol+quadrupol energy correction           -0.000000 eV
 added-field ion interaction         -0.000000 eV  (added to PSCEN)


 Broyden mixing:
  rms(total) = 0.39133E-02    rms(broyden)= 0.38900E-02
  rms(prec ) = 0.46475E-02
  weight for this iteration     100.00

 eigenvalues of (default mixing * dielectric matrix)
  average eigenvalue GAMMA=   1.0686
  2.5097  1.1338  1.1338  0.8470  0.7179  0.6105  0.5278

 Free energy of the ion-electron system (eV)
  ---------------------------------------------------
  alpha Z        PSCENC =         0.31012730
  Ewald energy   TEWEN  =        35.56439175
  -1/2 Hartree   DENC   =      -778.63944808
  -exchange  EXHF       =         0.00000000
  -V(xc)+E(xc)   XCENC  =        52.74692611
  PAW double counting   =       694.50166565     -697.92065770
  entropy T*S    EENTRO =         0.00579864
  eigenvalues    EBANDS =      -176.36342732
  atomic energy  EATOM  =       864.71286919
  ---------------------------------------------------
  free energy    TOTEN  =        -5.08175446 eV

  energy without entropy =       -5.08755310  energy(sigma->0) =       -5.08368734


--------------------------------------------------------------------------------------------------------




----------------------------------------- Iteration    2(   9)  ---------------------------------------


    POTLOK:  cpu time    0.78: real time    0.78
    SETDIJ:  cpu time    0.01: real time    0.01
     EDDAV:  cpu time    0.81: real time    0.81
       DOS:  cpu time    0.00: real time    0.00
    CHARGE:  cpu time    0.14: real time    0.14
    MIXING:  cpu time    0.02: real time    0.02
    --------------------------------------------
      LOOP:  cpu time    1.76: real time    1.76

 eigenvalue-minimisations  :   121
 total energy-change (2. order) :-0.5836508E-03  (-0.3623827E-05)
 number of electron      11.9999966 magnetization       1.9999983
 augmentation part        0.9973707 magnetization       0.4781431

 DIPCOR: dipole corrections for dipol
 direction  3 min pos    91,
 dipolmoment           0.000000      0.000000     -0.000012 electrons x Angstroem
 Tr[quadrupol]         0.507448

 energy correction for charged system         0.000000 eV
 dipol+quadrupol energy correction           -0.000000 eV
 added-field ion interaction          0.000001 eV  (added to PSCEN)


 Broyden mixing:
  rms(total) = 0.42212E-02    rms(broyden)= 0.42099E-02
  rms(prec ) = 0.48698E-02
  weight for this iteration     100.00

 eigenvalues of (default mixing * dielectric matrix)
  average eigenvalue GAMMA=   1.1590
  2.5137  1.4711  1.2034  1.0022  1.0022  0.7755  0.6276  0.6764

 Free energy of the ion-electron system (eV)
  ---------------------------------------------------
  alpha Z        PSCENC =         0.31012803
  Ewald energy   TEWEN  =        35.56439175
  -1/2 Hartree   DENC   =      -778.65013979
  -exchange  EXHF       =         0.00000000
  -V(xc)+E(xc)   XCENC  =        52.74684683
  PAW double counting   =       694.53910786     -697.95830696
  entropy T*S    EENTRO =         0.00579835
  eigenvalues    EBANDS =      -176.35303337
  atomic energy  EATOM  =       864.71286919
  ---------------------------------------------------
  free energy    TOTEN  =        -5.08233811 eV

  energy without entropy =       -5.08813646  energy(sigma->0) =       -5.08427090


--------------------------------------------------------------------------------------------------------




----------------------------------------- Iteration    2(  10)  ---------------------------------------


    POTLOK:  cpu time    0.78: real time    0.78
    SETDIJ:  cpu time    0.01: real time    0.01
     EDDAV:  cpu time    0.77: real time    0.77
       DOS:  cpu time    0.00: real time    0.00
    CHARGE:  cpu time    0.14: real time    0.14
    MIXING:  cpu time    0.02: real time    0.02
    --------------------------------------------
      LOOP:  cpu time    1.72: real time    1.72

 eigenvalue-minimisations  :   112
 total energy-change (2. order) : 0.3959327E-03  (-0.3476514E-05)
 number of electron      11.9999966 magnetization       1.9999983
 augmentation part        0.9974154 magnetization       0.4781713

 DIPCOR: dipole corrections for dipol
 direction  3 min pos    91,
 dipolmoment           0.000000      0.000000     -0.000003 electrons x Angstroem
 Tr[quadrupol]         0.512958

 energy correction for charged system         0.000000 eV
 dipol+quadrupol energy correction           -0.000000 eV
 added-field ion interaction          0.000000 eV  (added to PSCEN)
[...]
  augment    13.01160    13.02671    10.44237     0.00000    -0.00000    -0.00000
  Kinetic   271.53310   271.64941   232.49528    -0.00001    -0.00001     0.00001
  Fock        0.00000     0.00000     0.00000     0.00000     0.00000     0.00000
  -------------------------------------------------------------------------------------
  Total      -0.07237    -0.09931    -0.13789     0.00000     0.00000     0.00000
  in kB      -0.06470    -0.08878    -0.12327     0.00000     0.00000     0.00000
  external pressure =       -0.09 kB  Pullay stress =        0.00 kB


 VOLUME and BASIS-vectors are now :
 -----------------------------------------------------------------------------
  energy-cutoff  :      500.00
  volume of cell :     1792.22
      direct lattice vectors                 reciprocal lattice vectors
    10.160000000  0.000000000  0.000000000     0.098425197  0.000000000  0.000000000
     0.000000000 11.760000000  0.000000000     0.000000000  0.085034014  0.000000000
     0.000000000  0.000000000 15.000000000     0.000000000  0.000000000  0.066666667

  length of vectors
    10.160000000 11.760000000 15.000000000     0.098425197  0.085034014  0.066666667


 FORCES acting on ions
    electron-ion (+dipol)            ewald-force                    non-local-force                 convergence-correction
 -----------------------------------------------------------------------------------------------
   -.704E-14 0.186E-12 -.289E+03   0.144E-15 0.147E-16 0.341E+03   0.000E+00 0.000E+00 -.520E+02   -.263E-13 -.506E-13 0.129E-01
   -.347E-14 -.126E-12 0.289E+03   -.897E-17 0.215E-16 -.341E+03   0.000E+00 0.000E+00 0.520E+02   -.381E-13 -.991E-13 -.129E-01
 -----------------------------------------------------------------------------------------------
   -.105E-13 0.604E-13 0.162E-03   0.135E-15 0.362E-16 0.000E+00   0.000E+00 0.000E+00 0.711E-14   -.644E-13 -.150E-12 -.950E-06
 
 
 POSITION                                       TOTAL-FORCE (eV/Angst)
 -----------------------------------------------------------------------------------
      0.00000      0.00000      1.19174         0.000000      0.000000     -0.016022
      0.00000      0.00000     -0.04079         0.000000      0.000000      0.016022
 -----------------------------------------------------------------------------------
    total drift:                               -0.000000     -0.000000      0.000161


--------------------------------------------------------------------------------------------------------



  FREE ENERGIE OF THE ION-ELECTRON SYSTEM (eV)
  ---------------------------------------------------
  free  energy   TOTEN  =        -9.85173329 eV

  energy  without entropy=       -9.85753300  energy(sigma->0) =       -9.85366653
 
 d Force = 0.1223832E-03[ 0.276E-04, 0.217E-03]  d Energy = 0.2107317E-03-0.883E-04
 d Force =-0.5859281E+00[-0.587E+00,-0.585E+00]  d Ewald  =-0.5859276E+00-0.572E-06


--------------------------------------------------------------------------------------------------------


    POTLOK:  cpu time    0.78: real time    0.78


--------------------------------------------------------------------------------------------------------




--------------------------------------------------------------------------------------------------------


    WAVPRE:  cpu time    0.07: real time    0.07
 FEWALD executed in parallel
    FEWALD:  cpu time    0.00: real time    0.00

 real space projection operators:
  total allocation   :         85.62 KBytes
  max/ min on nodes  :         22.25         19.75

    ORTHCH:  cpu time    0.10: real time    0.10
     LOOP+:  cpu time    7.10: real time    7.11


----------------------------------------- Iteration    9(   1)  ---------------------------------------


    POTLOK:  cpu time    0.78: real time    0.78
    SETDIJ:  cpu time    0.01: real time    0.01
     EDDAV:  cpu time    1.09: real time    1.09
       DOS:  cpu time    0.00: real time    0.00
    CHARGE:  cpu time    0.14: real time    0.14
    MIXING:  cpu time    0.01: real time    0.01
    --------------------------------------------
      LOOP:  cpu time    2.02: real time    2.02

 eigenvalue-minimisations  :   182
 total energy-change (2. order) :-0.4558434E-04  (-0.1825483E-04)
 number of electron      11.9999957 magnetization       1.9999982
 augmentation part        1.1420854 magnetization       0.4959005

 DIPCOR: dipole corrections for dipol
 direction  3 min pos    92,
 dipolmoment           0.000000      0.000000     -0.000039 electrons x Angstroem
 Tr[quadrupol]         0.634810

 energy correction for charged system         0.000000 eV
 dipol+quadrupol energy correction           -0.000000 eV
 added-field ion interaction         -0.000002 eV  (added to PSCEN)


 Broyden mixing:
  rms(total) = 0.14270E-02    rms(broyden)= 0.14211E-02
  rms(prec ) = 0.14999E-02
  weight for this iteration     100.00

 Free energy of the ion-electron system (eV)
  ---------------------------------------------------
  alpha Z        PSCENC =         0.31012504
  Ewald energy   TEWEN  =       188.54936193
  -1/2 Hartree   DENC   =      -922.77965713
  -exchange  EXHF       =         0.00000000
  -V(xc)+E(xc)   XCENC  =        55.36132285
  PAW double counting   =       876.50114153     -880.07929859
  entropy T*S    EENTRO =         0.00580022
  eigenvalues    EBANDS =      -192.43342041
  atomic energy  EATOM  =       864.71286919
  ---------------------------------------------------
  free energy    TOTEN  =        -9.85175539 eV

  energy without entropy =       -9.85755560  energy(sigma->0) =       -9.85368879


--------------------------------------------------------------------------------------------------------




----------------------------------------- Iteration    9(   2)  ---------------------------------------


    POTLOK:  cpu time    0.77: real time    0.77
    SETDIJ:  cpu time    0.01: real time    0.01
     EDDAV:  cpu time    1.10: real time    1.10
       DOS:  cpu time    0.00: real time    0.00
    --------------------------------------------
      LOOP:  cpu time    1.88: real time    1.88

 eigenvalue-minimisations  :   185
 total energy-change (2. order) :-0.8259114E-05  (-0.7092541E-06)
 number of electron      11.9999957 magnetization       1.9999982
 augmentation part        1.1420854 magnetization       0.4959005

 DIPCOR: dipole corrections for dipol
 direction  3 min pos    92,
 dipolmoment           0.000000      0.000000     -0.000037 electrons x Angstroem
 Tr[quadrupol]         0.636184

 energy correction for charged system         0.000000 eV
 dipol+quadrupol energy correction           -0.000000 eV
 added-field ion interaction         -0.000002 eV  (added to PSCEN)


 Free energy of the ion-electron system (eV)
  ---------------------------------------------------
  alpha Z        PSCENC =         0.31012516
  Ewald energy   TEWEN  =       188.54936193
  -1/2 Hartree   DENC   =      -922.79854268
  -exchange  EXHF       =         0.00000000
  -V(xc)+E(xc)   XCENC  =        55.36244875
  PAW double counting   =       876.65767859     -880.23632034
  entropy T*S    EENTRO =         0.00579903
  eigenvalues    EBANDS =      -192.41518326
  atomic energy  EATOM  =       864.71286919
  ---------------------------------------------------
  free energy    TOTEN  =        -9.85176364 eV

  energy without entropy =       -9.85756267  energy(sigma->0) =       -9.85369665


--------------------------------------------------------------------------------------------------------




 average (electrostatic) potential at core
  the test charge radii are     0.7215
  (the norm of the test charge is              1.0000)
       1 -83.8012       2 -83.8012
 
 
 
 E-fermi :  -6.8512     XC(G=0):  -0.3729     alpha+bet : -0.0836


 spin component 1

 k-point   1 :       0.0000    0.0000    0.2500
  band No.  band energies     occupation 
      1     -32.5346      1.00000
      2     -20.6211      1.00000
      3     -13.4034      1.00000
      4     -13.2678      1.00000
      5     -13.2670      1.00000
      6      -6.9361      1.00155
      7      -6.9347      0.99840
      8      -0.2899      0.00000
      9       0.1832      0.00000
     10       0.6841      0.00000
     11       0.9170      0.00000

 k-point   2 :       0.3333    0.0000    0.2500
  band No.  band energies     occupation 
      1     -32.5345      1.00000
      2     -20.6211      1.00000
      3     -13.4034      1.00000
      4     -13.2678      1.00000
      5     -13.2670      1.00000
      6      -6.9361      1.00156
      7      -6.9347      0.99846
      8      -0.1464      0.00000
      9       0.3188      0.00000
     10       0.4044      0.00000
     11       0.7570      0.00000

 k-point   3 :       0.0000    0.3333    0.2500
  band No.  band energies     occupation 
      1     -32.5345      1.00000
      2     -20.6211      1.00000
      3     -13.4034      1.00000
      4     -13.2678      1.00000
      5     -13.2670      1.00000
      6      -6.9361      1.00156
      7      -6.9347      0.99844
      8      -0.1957      0.00000
      9       0.2475      0.00000
     10       0.3091      0.00000
     11       0.6633      0.00000

 k-point   4 :       0.3333    0.3333    0.2500
  band No.  band energies     occupation 
      1     -32.5345      1.00000
      2     -20.6211      1.00000
      3     -13.4034      1.00000
      4     -13.2678      1.00000
      5     -13.2670      1.00000
      6      -6.9361      1.00158
      7      -6.9347      0.99842
      8      -0.0560      0.00000
      9       0.3847      0.00000
     10       0.4444      0.00000
     11       0.5221      0.00000

 spin component 2

 k-point   1 :       0.0000    0.0000    0.2500
  band No.  band energies     occupation 
      1     -31.3103      1.00000
      2     -18.8252      1.00000
      3     -12.4762      1.00000
      4     -11.4217      1.00000
      5     -11.4172      1.00000
      6      -4.6552     -0.00000
      7      -4.6502     -0.00000
      8      -0.1945      0.00000
      9       0.2472      0.00000
     10       0.7980      0.00000
     11       0.8932      0.00000

 k-point   2 :       0.3333    0.0000    0.2500
  band No.  band energies     occupation 
      1     -31.3103      1.00000
      2     -18.8252      1.00000
      3     -12.4762      1.00000
      4     -11.4217      1.00000
      5     -11.4172      1.00000
      6      -4.6552     -0.00000
      7      -4.6502     -0.00000
      8      -0.0408      0.00000
      9       0.3943      0.00000
     10       0.4826      0.00000
     11       0.8659      0.00000

 k-point   3 :       0.0000    0.3333    0.2500
  band No.  band energies     occupation 
      1     -31.3103      1.00000
      2     -18.8252      1.00000
      3     -12.4762      1.00000
      4     -11.4217      1.00000
      5     -11.4172      1.00000
      6      -4.6552     -0.00000
      7      -4.6502     -0.00000
      8      -0.0868      0.00000
      9       0.3058      0.00000
     10       0.3853      0.00000
     11       0.7296      0.00000

 k-point   4 :       0.3333    0.3333    0.2500
  band No.  band energies     occupation 
      1     -31.3103      1.00000
      2     -18.8252      1.00000
      3     -12.4762      1.00000
      4     -11.4217      1.00000
      5     -11.4172      1.00000
      6      -4.6552     -0.00000
      7      -4.6502     -0.00000
      8       0.0651      0.00000
      9       0.4522      0.00000
     10       0.5386      0.00000
     11       0.6020      0.00000


--------------------------------------------------------------------------------------------------------


 soft charge-density along one line, spin component           1
         0         1         2         3         4         5         6         7         8         9
 total charge-density along one line
 
 soft charge-density along one line, spin component           2
         0         1         2         3         4         5         6         7         8         9
 total charge-density along one line
 
 pseudopotential strength for first ion, spin component:           1
 14.559 -17.902  -0.000   0.129  -0.000   0.000  -0.162   0.000
-17.902  22.048   0.000  -0.165   0.000  -0.000   0.208  -0.000
 -0.000   0.000 -11.415   0.000   0.000  14.304  -0.000  -0.000
  0.129  -0.165   0.000 -11.416  -0.000  -0.000  14.293   0.000
 -0.000   0.000   0.000  -0.000 -11.414  -0.000   0.000  14.303
  0.000  -0.000  14.304  -0.000  -0.000 -17.884   0.000   0.000
 -0.162   0.208  -0.000  14.293   0.000   0.000 -17.854  -0.000
  0.000  -0.000  -0.000   0.000  14.303   0.000  -0.000 -17.883
 pseudopotential strength for first ion, spin component:           2
 14.027 -17.216  -0.000   0.128  -0.000   0.000  -0.161   0.000
-17.216  21.162   0.000  -0.163   0.000  -0.000   0.206  -0.000
 -0.000   0.000 -10.800   0.000   0.000  13.440  -0.000  -0.000
  0.128  -0.163   0.000 -11.203  -0.000  -0.000  13.995   0.000
 -0.000   0.000   0.000  -0.000 -10.801  -0.000   0.000  13.442
  0.000  -0.000  13.440  -0.000  -0.000 -16.667   0.000   0.000
 -0.161   0.206  -0.000  13.995   0.000   0.000 -17.433  -0.000
  0.000  -0.000  -0.000   0.000  13.442   0.000  -0.000 -16.670
 total augmentation occupancy for first ion, spin component:           1
  2.474   0.326   0.000  -0.533   0.000   0.000  -0.253   0.000
  0.326   0.178   0.000  -0.548   0.000   0.000  -0.165   0.000
  0.000   0.000   1.690   0.000   0.000   0.085   0.000   0.000
 -0.533  -0.548   0.000   2.426   0.000   0.000   0.542   0.000
  0.000   0.000   0.000   0.000   1.689   0.000   0.000   0.086
  0.000   0.000   0.085   0.000   0.000   0.031   0.000   0.000
 -0.253  -0.165   0.000   0.542   0.000   0.000   0.155   0.000
  0.000   0.000   0.000   0.000   0.086   0.000   0.000   0.031
 total augmentation occupancy for first ion, spin component:           2
 -0.102  -0.057   0.000   0.016   0.000   0.000   0.015   0.000
 -0.057  -0.008   0.000   0.009   0.000   0.000   0.006   0.000
  0.000   0.000   0.332   0.000   0.000  -0.095   0.000   0.000
  0.016   0.009   0.000  -0.037   0.000   0.000  -0.019   0.000
  0.000   0.000   0.000   0.000   0.331   0.000   0.000  -0.095
  0.000   0.000  -0.095   0.000   0.000   0.007   0.000   0.000
  0.015   0.006   0.000  -0.019   0.000   0.000  -0.006   0.000
  0.000   0.000   0.000   0.000  -0.095   0.000   0.000   0.007


------------------------ aborting loop because EDIFF is reached ----------------------------------------


    CHARGE:  cpu time    0.13: real time    0.13
    FORLOC:  cpu time    0.01: real time    0.01
    FORNL :  cpu time    0.28: real time    0.28
    STRESS:  cpu time    0.89: real time    0.89
    FORCOR:  cpu time    0.81: real time    0.81
    FORHAR:  cpu time    0.07: real time    0.07
    MIXING:  cpu time    0.02: real time    0.02

  FORCE on cell =-STRESS in cart. coord.  units (eV):
  Direction    XX          YY          ZZ          XY          YZ          ZX
  --------------------------------------------------------------------------------------
  Alpha Z     0.31013     0.31013     0.31013
  Ewald     -32.19050   -67.87066   288.61054     0.00000     0.00000    -0.00000
  Hartree   286.94420   252.03621   383.83249    -0.00000    -0.00000    -0.00000
  E(xc)     -59.12699   -59.12699   -57.96803     0.00000     0.00000     0.00000
  Local    -436.92586  -366.42022  -810.42032    -0.00000    -0.00000    -0.00000
  n-local   -43.66690   -43.70211   -47.43582    -0.00013    -0.00001     0.00001
  augment    13.01096    13.02465    10.44137    -0.00000     0.00000     0.00000
  Kinetic   271.53138   271.63129   232.49676    -0.00001    -0.00001     0.00001
  Fock        0.00000     0.00000     0.00000     0.00000     0.00000     0.00000
  -------------------------------------------------------------------------------------
  Total      -0.11358    -0.11771    -0.13289     0.00000     0.00000     0.00000
  in kB      -0.10153    -0.10523    -0.11880     0.00000     0.00000     0.00000
  external pressure =       -0.11 kB  Pullay stress =        0.00 kB


 VOLUME and BASIS-vectors are now :
 -----------------------------------------------------------------------------
  energy-cutoff  :      500.00
  volume of cell :     1792.22
      direct lattice vectors                 reciprocal lattice vectors
    10.160000000  0.000000000  0.000000000     0.098425197  0.000000000  0.000000000
     0.000000000 11.760000000  0.000000000     0.000000000  0.085034014  0.000000000
     0.000000000  0.000000000 15.000000000     0.000000000  0.000000000  0.066666667

  length of vectors
    10.160000000 11.760000000 15.000000000     0.098425197  0.085034014  0.066666667


 FORCES acting on ions
    electron-ion (+dipol)            ewald-force                    non-local-force                 convergence-correction
 -----------------------------------------------------------------------------------------------
   0.245E-14 0.189E-12 -.289E+03   -.402E-16 0.818E-17 0.341E+03   0.000E+00 0.000E+00 -.520E+02   -.270E-13 -.559E-13 0.171E-02
   -.281E-14 0.203E-12 0.289E+03   0.175E-15 0.280E-16 -.341E+03   0.000E+00 0.000E+00 0.520E+02   -.340E-13 -.119E-12 -.171E-02
 -----------------------------------------------------------------------------------------------
   -.362E-15 0.392E-12 0.752E-04   0.135E-15 0.362E-16 0.000E+00   0.000E+00 0.000E+00 -.142E-13   -.610E-13 -.175E-12 -.792E-06
 
 
 POSITION                                       TOTAL-FORCE (eV/Angst)
 -----------------------------------------------------------------------------------
      0.00000      0.00000      1.19161         0.000000      0.000000      0.006607
      0.00000      0.00000     -0.04066         0.000000      0.000000     -0.006607
 -----------------------------------------------------------------------------------
    total drift:                               -0.000000      0.000000      0.000074


--------------------------------------------------------------------------------------------------------



  FREE ENERGIE OF THE ION-ELECTRON SYSTEM (eV)
  ---------------------------------------------------
  free  energy   TOTEN  =        -9.85176364 eV

  energy  without entropy=       -9.85756267  energy(sigma->0) =       -9.85369665
 
 d Force = 0.1151195E-05[-0.162E-05, 0.392E-05]  d Energy = 0.3034975E-04-0.292E-04
 d Force =-0.8343916E-01[-0.835E-01,-0.834E-01]  d Ewald  =-0.8343916E-01-0.155E-08


--------------------------------------------------------------------------------------------------------


    POTLOK:  cpu time    0.79: real time    0.79


--------------------------------------------------------------------------------------------------------




--------------------------------------------------------------------------------------------------------


  
 reached required accuracy - stopping structural energy minimisation
     LOOP+:  cpu time    6.91: real time    6.93
    4ORBIT:  cpu time    0.00: real time    0.00

 total amount of memory used by VASP on root node   118632. kBytes
========================================================================

   base      :      30000. kBytes
   nonlr-proj:         53. kBytes
   fftplans  :      22742. kBytes
   grid      :      49803. kBytes
   one-center:          6. kBytes
   wavefun   :      16028. kBytes
 
  
  
 General timing and accounting informations for this job:
 ========================================================
  
                  Total CPU time used (sec):      182.852
                            User time (sec):      179.966
                          System time (sec):        2.886
                         Elapsed time (sec):      184.980
  
                   Maximum memory used (kb):      182212.
                   Average memory used (kb):           0.
  
                          Minor page faults:      1379355
                          Major page faults:           28
                 Voluntary context switches:         1632
