<?xml version="1.0" encoding="ISO-8859-1"?>
<modeling>
 <generator>
  <i name="program" type="string">vasp </i>
  <i name="version" type="string">5.3.3  </i>
  <i name="subversion" type="string">18Dez12 (build Aug 26 2015 16:06:49) complex                          parallel </i>
  <i name="platform" type="string">LinuxIFC </i>
  <i name="date" type="string">2020 05 16 </i>
  <i name="time" type="string">23:00:32 </i>
 </generator>
 <incar>
  <i type="string" name="SYSTEM"> Beta12Borophene !The name of the system</i>
  <i type="string" name="PREC">normal   !normal or accurate</i>
  <i type="string" name="ALGO"> Normal   !def=Normal. Sets IALGO and LD</i>
  <i type="int" name="ISPIN">     2</i>
  <i type="int" name="NELM">    60</i>
  <i type="int" name="IBRION">     2</i>
  <i name="EDIFFG">     -0.01000000</i>
  <i type="int" name="NSW">  1000</i>
  <i type="int" name="ISIF">     2</i>
  <i name="ENCUT">    500.00000000</i>
  <i name="POTIM">      0.50000000</i>
  <i type="string" name="LREAL"> Auto   !values=.FALSE. or Auto  (def=.F</i>
  <i type="int" name="ISMEAR">     1</i>
  <i name="SIGMA">      0.10000000</i>
  <i type="logical" name="LWAVE"> F  </i>
  <i type="logical" name="LCHARG"> F  </i>
  <i type="logical" name="LVTOT"> F  </i>
  <i type="logical" name="LELF"> F  </i>
  <i type="int" name="NELM">    60</i>
  <i type="string" name="GGA"> PE   !GGA flavor: PE=PBE, RP=RPBE, RE=r</i>
  <i type="logical" name="LDIPOL"> T  </i>
  <i type="int" name="IDIPOL">     3</i>
 </incar>
 <kpoints>
  <generation param="Monkhorst-Pack">
   <v type="int" name="divisions">       3        3        2 </v>
   <v name="usershift">      0.00000000       0.00000000       0.00000000 </v>
   <v name="genvec1">      0.33333333       0.00000000       0.00000000 </v>
   <v name="genvec2">      0.00000000       0.33333333       0.00000000 </v>
   <v name="genvec3">      0.00000000       0.00000000       0.50000000 </v>
   <v name="shift">      0.00000000       0.00000000       0.50000000 </v>
  </generation>
  <varray name="kpointlist" >
   <v>       0.00000000       0.00000000       0.25000000 </v>
   <v>       0.33333333       0.00000000       0.25000000 </v>
   <v>       0.00000000       0.33333333       0.25000000 </v>
   <v>       0.33333333       0.33333333       0.25000000 </v>
  </varray>
  <varray name="weights" >
   <v>       0.11111111 </v>
   <v>       0.22222222 </v>
   <v>       0.22222222 </v>
   <v>       0.44444444 </v>
  </varray>
 </kpoints>
 <parameters>
  <separator name="general" >
   <i type="string" name="SYSTEM">Beta12Borophene !The name of the system</i>
   <i type="logical" name="LCOMPAT"> F  </i>
  </separator>
  <separator name="electronic" >
   <i type="string" name="PREC">normal</i>
   <i name="ENMAX">    500.00000000</i>
   <i name="ENAUG">    605.39200000</i>
   <i name="EDIFF">      0.00010000</i>
   <i type="int" name="IALGO">    38</i>
   <i type="int" name="IWAVPR">    11</i>
   <i type="int" name="NBANDS">    11</i>
   <i name="NELECT">     12.00000000</i>
   <i type="int" name="TURBO">     0</i>
   <i type="int" name="IRESTART">     0</i>
   <i type="int" name="NREBOOT">     0</i>
   <i type="int" name="NMIN">     0</i>
   <i name="EREF">      0.00000000</i>
   <separator name="electronic smearing" >
    <i type="int" name="ISMEAR">     1</i>
    <i name="SIGMA">      0.10000000</i>
    <i name="KSPACING">      0.50000000</i>
    <i type="logical" name="KGAMMA"> T  </i>
   </separator>
   <separator name="electronic projectors" >
    <i type="logical" name="LREAL"> T  </i>
    <v name="ROPT">     -0.00050000</v>
    <i type="int" name="LMAXPAW">  -100</i>
    <i type="int" name="LMAXMIX">     2</i>
    <i type="logical" name="NLSPLINE"> F  </i>
   </separator>
   <separator name="electronic startup" >
    <i type="int" name="ISTART">     0</i>
    <i type="int" name="ICHARG">     2</i>
    <i type="int" name="INIWAV">     1</i>
   </separator>
   <separator name="electronic spin" >
    <i type="int" name="ISPIN">     2</i>
    <i type="logical" name="LNONCOLLINEAR"> F  </i>
    <v name="MAGMOM">      1.00000000      1.00000000</v>
    <i name="NUPDOWN">     -1.00000000</i>
    <i type="logical" name="LSORBIT"> F  </i>
    <v name="SAXIS">      0.00000000      0.00000000      1.00000000</v>
    <i type="logical" name="LSPIRAL"> F  </i>
    <v name="QSPIRAL">      0.00000000      0.00000000      0.00000000</v>
    <i type="logical" name="LZEROZ"> F  </i>
   </separator>
   <separator name="electronic exchange-correlation" >
    <i type="logical" name="LASPH"> F  </i>
    <i type="logical" name="LMETAGGA"> F  </i>
   </separator>
   <separator name="electronic convergence" >
    <i type="int" name="NELM">    60</i>
    <i type="int" name="NELMDL">    -5</i>
    <i type="int" name="NELMIN">     2</i>
    <i name="ENINI">    500.00000000</i>
    <separator name="electronic convergence detail" >
     <i type="logical" name="LDIAG"> T  </i>
     <i type="logical" name="LSUBROT"> T  </i>
     <i name="WEIMIN">      0.00100000</i>
     <i name="EBREAK">      0.00000227</i>
     <i name="DEPER">      0.30000000</i>
     <i type="int" name="NRMM">     4</i>
     <i name="TIME">      0.40000000</i>
    </separator>
   </separator>
   <separator name="electronic mixer" >
    <i name="AMIX">      0.40000000</i>
    <i name="BMIX">      1.00000000</i>
    <i name="AMIN">      0.10000000</i>
    <i name="AMIX_MAG">      1.60000000</i>
    <i name="BMIX_MAG">      1.00000000</i>
    <separator name="electronic mixer details" >
     <i type="int" name="IMIX">     4</i>
     <i type="int" name="MAXMIX">   -45</i>
     <i name="WC">    100.00000000</i>
     <i type="int" name="INIMIX">     1</i>
     <i type="int" name="MIXPRE">     1</i>
     <i type="int" name="MREMOVE">     5</i>
    </separator>
   </separator>
   <separator name="electronic dipolcorrection" >
    <i type="logical" name="LDIPOL"> T  </i>
    <i type="logical" name="LMONO"> F  </i>
    <i type="int" name="IDIPOL">     3</i>
    <i name="EPSILON">      1.00000000</i>
    <v name="DIPOL">   -100.00000000   -100.00000000   -100.00000000</v>
    <i name="EFIELD">      0.00000000</i>
   </separator>
  </separator>
  <separator name="grids" >
   <i type="int" name="NGX">    56</i>
   <i type="int" name="NGY">    64</i>
   <i type="int" name="NGZ">    84</i>
   <i type="int" name="NGXF">   112</i>
   <i type="int" name="NGYF">   128</i>
   <i type="int" name="NGZF">   168</i>
   <i type="logical" name="ADDGRID"> F  </i>
  </separator>
  <separator name="ionic" >
   <i type="int" name="NSW">  1000</i>
   <i type="int" name="IBRION">     2</i>
   <i type="int" name="ISIF">     2</i>
   <i name="PSTRESS">      0.00000000</i>
   <i name="EDIFFG">     -0.01000000</i>
   <i type="int" name="NFREE">     1</i>
   <i name="POTIM">      0.50000000</i>
   <i name="SMASS">     -3.00000000</i>
   <i name="SCALEE">      1.00000000</i>
  </separator>
  <separator name="ionic md" >
   <i name="TEBEG">      0.00010000</i>
   <i name="TEEND">      0.00010000</i>
   <i type="int" name="NBLOCK">     1</i>
   <i type="int" name="KBLOCK">  1000</i>
   <i type="int" name="NPACO">   256</i>
   <i name="APACO">     16.00000000</i>
  </separator>
  <separator name="symmetry" >
   <i type="int" name="ISYM">     2</i>
   <i name="SYMPREC">      0.00001000</i>
  </separator>
  <separator name="dos" >
   <i type="logical" name="LORBIT"> F  </i>
   <v name="RWIGS">     -1.00000000</v>
   <i type="int" name="NEDOS">   301</i>
   <i name="EMIN">     10.00000000</i>
   <i name="EMAX">    -10.00000000</i>
   <i name="EFERMI">      0.00000000</i>
  </separator>
  <separator name="writing" >
   <i type="int" name="NWRITE">     2</i>
   <i type="logical" name="LWAVE"> F  </i>
   <i type="logical" name="LCHARG"> F  </i>
   <i type="logical" name="LPARD"> F  </i>
   <i type="logical" name="LVTOT"> F  </i>
   <i type="logical" name="LVHAR"> F  </i>
   <i type="logical" name="LELF"> F  </i>
   <i type="logical" name="LOPTICS"> F  </i>
   <v name="STM">      0.00000000      0.00000000      0.00000000      0.00000000      0.00000000      0.00000000      0.00000000</v>
  </separator>
  <separator name="performance" >
   <i type="int" name="NPAR">     1</i>
   <i type="int" name="NSIM">     4</i>
   <i type="int" name="NBLK">    -1</i>
   <i type="logical" name="LPLANE"> T  </i>
   <i type="logical" name="LSCALAPACK"> T  </i>
   <i type="logical" name="LSCAAWARE"> F  </i>
   <i type="logical" name="LSCALU"> F  </i>
   <i type="logical" name="LASYNC"> F  </i>
   <i type="logical" name="LORBITALREAL"> F  </i>
  </separator>
  <separator name="miscellaneous" >
   <i type="int" name="IDIOT">     3</i>
   <i type="logical" name="LMUSIC"> F  </i>
   <v name="POMASS">     16.00000000</v>
   <v name="DARWINR">      0.00000000</v>
   <v name="DARWINV">      1.00000000</v>
   <i type="logical" name="LCORR"> T  </i>
  </separator>
  <i type="logical" name="GGA_COMPAT"> T  </i>
  <i type="logical" name="LBERRY"> F  </i>
  <i type="int" name="ICORELEVEL">     0</i>
  <i type="logical" name="LDAU"> F  </i>
  <i type="int" name="I_CONSTRAINED_M">     0</i>
  <separator name="electronic exchange-correlation" >
   <i type="string" name="GGA">PE</i>
   <i type="int" name="VOSKOWN">     0</i>
   <i type="logical" name="LHFCALC"> F  </i>
   <i type="string" name="PRECFOCK"></i>
   <i type="logical" name="LSYMGRAD"> F  </i>
   <i type="logical" name="LHFONE"> F  </i>
   <i type="logical" name="LRHFCALC"> F  </i>
   <i type="logical" name="LTHOMAS"> F  </i>
   <i type="logical" name="LMODELHF"> F  </i>
   <i name="ENCUT4O">     -1.00000000</i>
   <i type="int" name="EXXOEP">     0</i>
   <i type="int" name="FOURORBIT">     0</i>
   <i name="AEXX">      0.00000000</i>
   <i name="HFALPHA">      0.00000000</i>
   <i name="MCALPHA">      0.00000000</i>
   <i name="ALDAX">      1.00000000</i>
   <i name="AGGAX">      1.00000000</i>
   <i name="ALDAC">      1.00000000</i>
   <i name="AGGAC">      1.00000000</i>
   <i type="int" name="NKREDX">     1</i>
   <i type="int" name="NKREDY">     1</i>
   <i type="int" name="NKREDZ">     1</i>
   <i type="logical" name="SHIFTRED"> F  </i>
   <i type="logical" name="ODDONLY"> F  </i>
   <i type="logical" name="EVENONLY"> F  </i>
   <i type="int" name="LMAXFOCK">     0</i>
   <i type="int" name="NMAXFOCKAE">     0</i>
   <i type="logical" name="LFOCKAEDFT"> F  </i>
   <i name="HFSCREEN">      0.00000000</i>
   <i name="HFSCREENC">      0.00000000</i>
   <i type="int" name="NBANDSGWLOW">     0</i>
  </separator>
  <separator name="vdW DFT" >
   <i type="logical" name="LUSE_VDW"> F  </i>
   <i name="Zab_VDW">     -0.84910000</i>
   <i name="PARAM1">      0.12340000</i>
   <i name="PARAM2">      1.00000000</i>
   <i name="PARAM3">      0.00000000</i>
  </separator>
  <separator name="model GW" >
   <i type="int" name="MODEL_GW">     0</i>
   <i name="MODEL_EPS0">    537.66720000</i>
   <i name="MODEL_ALPHA">      1.00000000</i>
  </separator>
  <separator name="linear response parameters" >
   <i type="logical" name="LEPSILON"> F  </i>
   <i type="logical" name="LRPA"> F  </i>
   <i type="logical" name="LNABLA"> F  </i>
   <i type="logical" name="LVEL"> F  </i>
   <i type="int" name="KINTER">     0</i>
   <i name="CSHIFT">      0.10000000</i>
   <i name="OMEGAMAX">     -1.00000000</i>
   <i name="DEG_THRESHOLD">      0.00200000</i>
  </separator>
  <separator name="orbital magnetization" >
   <i type="logical" name="NUCIND"> F  </i>
   <v name="MAGPOS">      0.00000000      0.00000000      0.00000000</v>
   <i type="logical" name="LNICSALL"> T  </i>
   <i type="logical" name="ORBITALMAG"> F  </i>
   <i type="logical" name="LMAGBLOCH"> F  </i>
   <i type="logical" name="LCHIMAG"> F  </i>
   <i type="logical" name="LGAUGE"> T  </i>
   <i type="int" name="MAGATOM">     0</i>
   <v name="MAGDIPOL">      0.00000000      0.00000000      0.00000000</v>
   <v name="AVECCONST">      0.00000000      0.00000000      0.00000000</v>
  </separator>
  <separator name="response functions" >
   <i type="logical" name="LADDER"> F  </i>
   <i type="logical" name="LFXC"> F  </i>
   <i type="logical" name="LHARTREE"> T  </i>
   <i type="int" name="IBSE">     0</i>
   <i type="logical" name="LTCTE"> F  </i>
   <i type="logical" name="LTETE"> F  </i>
   <i type="logical" name="LTRIPLET"> F  </i>
   <i type="logical" name="LFXCEPS"> F  </i>
   <i type="logical" name="L2ORDER"> F  </i>
   <i type="logical" name="LUSEW"> F  </i>
   <i name="ENCUTGW">     -2.00000000</i>
   <i name="ENCUTGWSOFT">     -2.00000000</i>
   <i name="ENCUTLF">     -1.00000000</i>
   <i type="int" name="LMAXMP2">    -1</i>
   <i name="SCISSOR">      0.00000000</i>
   <i type="int" name="NOMEGA">     0</i>
   <i type="int" name="NOMEGAR">     0</i>
   <i type="int" name="NBANDSGW">    -1</i>
   <i type="int" name="NBANDSO">    -1</i>
   <i type="int" name="NBANDSV">    -1</i>
   <i type="int" name="NELM">    60</i>
   <i type="int" name="DIM">     3</i>
   <i type="int" name="ANTIRES">     0</i>
   <i name="OMEGAMAX">    -30.00000000</i>
   <i name="OMEGATL">   -200.00000000</i>
   <i type="int" name="OMEGAGRID">     0</i>
   <i name="CSHIFT">     -0.10000000</i>
   <i type="logical" name="SELFENERGY"> F  </i>
   <i type="logical" name="LSPECTRAL"> F  </i>
   <i type="logical" name="ODDONLYGW"> F  </i>
   <i type="logical" name="EVENONLYGW"> F  </i>
   <i type="int" name="NKREDLFX">     1</i>
   <i type="int" name="NKREDLFY">     1</i>
   <i type="int" name="NKREDLFZ">     1</i>
   <i type="int" name="MAXMEM">  1800</i>
   <i type="int" name="TELESCOPE">     0</i>
  </separator>
 </parameters>
 <atominfo>
  <atoms>       2 </atoms>
  <types>       1 </types>
  <array name="atoms" >
   <dimension dim="1">ion</dimension>
   <field type="string">element</field>
   <field type="int">atomtype</field>
   <set>
    <rc><c>O </c><c>   1</c></rc>
    <rc><c>O </c><c>   1</c></rc>
   </set>
  </array>
  <array name="atomtypes" >
   <dimension dim="1">type</dimension>
   <field type="int">atomspertype</field>
   <field type="string">element</field>
   <field>mass</field>
   <field>valence</field>
   <field type="string">pseudopotential</field>
   <set>
    <rc><c>   2</c><c>O </c><c>     16.00000000</c><c>      6.00000000</c><c>  PAW_PBE O 08Apr2002                   </c></rc>
   </set>
  </array>
 </atominfo>
 <structure name="initialpos" >
  <crystal>
   <varray name="basis" >
    <v>      10.16000000       0.00000000       0.00000000 </v>
    <v>       0.00000000      11.76000000       0.00000000 </v>
    <v>       0.00000000       0.00000000      15.00000000 </v>
   </varray>
   <i name="volume">   1792.22400000 </i>
   <varray name="rec_basis" >
    <v>       0.09842520       0.00000000       0.00000000 </v>
    <v>       0.00000000       0.08503401       0.00000000 </v>
    <v>       0.00000000       0.00000000       0.06666667 </v>
   </varray>
  </crystal>
  <varray name="positions" >
   <v>       0.00000000       0.00000000       0.07673000 </v>
   <v>       0.00000000       0.00000000       0.00000000 </v>
  </varray>
 </structure>
 <calculation>
  <scstep>
   <time name="dav">    1.36    1.37</time>
   <time name="total">    2.16    2.19</time>
   <dipole>
    <v name="dipole">      0.00000000       0.00000000       0.00000871 </v>
    <i name="Tr[quadrupol]">      0.64908973 </i>
    <i name="Echarged">      0.00000000 </i>
    <i name="Edipol_quadrupol">      0.00000000 </i>
    <i name="Eion">      0.00000000 </i>
   </dipole>
   <energy>
    <i name="alphaZ">      0.31013466 </i>
    <i name="ewald">    218.26681851 </i>
    <i name="hartreedc">   -938.11556215 </i>
    <i name="XCdc">     55.12774361 </i>
    <i name="pawpsdc">    692.81204765 </i>
    <i name="pawaedc">   -696.39983308 </i>
    <i name="eentropy">      0.00245008 </i>
    <i name="bandstr">   -115.01042556 </i>
    <i name="atom">    864.71286919 </i>
    <i name="e_fr_energy">     81.70624289 </i>
    <i name="e_wo_entrp">     81.70379281 </i>
    <i name="e_0_energy">     81.70542620 </i>
   </energy>
  </scstep>
  <scstep>
   <time name="dav">    1.55    1.55</time>
   <time name="total">    1.55    1.56</time>
   <dipole>
    <v name="dipole">      0.00000000       0.00000000       0.00000871 </v>
    <i name="Tr[quadrupol]">      0.64908973 </i>
    <i name="Echarged">      0.00000000 </i>
    <i name="Edipol_quadrupol">      0.00000000 </i>
    <i name="Eion">      0.00000000 </i>
   </dipole>
   <energy>
    <i name="e_fr_energy">     13.90035933 </i>
    <i name="e_wo_entrp">     13.90072201 </i>
    <i name="e_0_energy">     13.90048022 </i>
   </energy>
  </scstep>
  <scstep>
   <time name="dav">    1.35    1.35</time>
   <time name="total">    1.35    1.36</time>
   <dipole>
    <v name="dipole">      0.00000000       0.00000000       0.00000871 </v>
    <i name="Tr[quadrupol]">      0.64908973 </i>
    <i name="Echarged">      0.00000000 </i>
    <i name="Edipol_quadrupol">      0.00000000 </i>
    <i name="Eion">      0.00000000 </i>
   </dipole>
   <energy>
    <i name="e_fr_energy">     -2.83188238 </i>
    <i name="e_wo_entrp">     -2.82729777 </i>
    <i name="e_0_energy">     -2.83035418 </i>
   </energy>
  </scstep>
  <scstep>
   <time name="dav">    1.45    1.45</time>
   <time name="total">    1.45    1.46</time>
   <dipole>
    <v name="dipole">      0.00000000       0.00000000       0.00000871 </v>
    <i name="Tr[quadrupol]">      0.64908973 </i>
    <i name="Echarged">      0.00000000 </i>
    <i name="Edipol_quadrupol">      0.00000000 </i>
    <i name="Eion">      0.00000000 </i>
   </dipole>
   <energy>
    <i name="e_fr_energy">     -8.76097961 </i>
    <i name="e_wo_entrp">     -8.76255110 </i>
    <i name="e_0_energy">     -8.76150344 </i>
   </energy>
  </scstep>
  <scstep>
   <time name="dav">    1.21    1.21</time>
   <time name="total">    1.37    1.37</time>
   <dipole>
    <v name="dipole">      0.00000000       0.00000000       0.00000871 </v>
    <i name="Tr[quadrupol]">      0.64908973 </i>
    <i name="Echarged">      0.00000000 </i>
    <i name="Edipol_quadrupol">      0.00000000 </i>
    <i name="Eion">      0.00000000 </i>
   </dipole>
   <energy>
    <i name="e_fr_energy">     -9.55666537 </i>
    <i name="e_wo_entrp">     -9.56289397 </i>
    <i name="e_0_energy">     -9.55874157 </i>
   </energy>
  </scstep>
  <scstep>
   <time name="dav">    1.15    1.15</time>
   <time name="total">    2.10    2.10</time>
   <dipole>
    <v name="dipole">      0.00000000       0.00000000       0.00008288 </v>
    <i name="Tr[quadrupol]">      0.65509687 </i>
    <i name="Echarged">      0.00000000 </i>
    <i name="Edipol_quadrupol">      0.00000000 </i>
    <i name="Eion">      0.00000000 </i>
   </dipole>
   <energy>
    <i name="e_fr_energy">     -9.36303484 </i>
    <i name="e_wo_entrp">     -9.36907680 </i>
    <i name="e_0_energy">     -9.36504882 </i>
   </energy>
  </scstep>
  <scstep>
   <time name="dav">    1.13    1.13</time>
   <time name="total">    2.06    2.07</time>
   <dipole>
    <v name="dipole">      0.00000000       0.00000000       0.00022440 </v>
    <i name="Tr[quadrupol]">      0.66216191 </i>
    <i name="Echarged">      0.00000000 </i>
    <i name="Edipol_quadrupol">      0.00000000 </i>
    <i name="Eion">      0.00000000 </i>
   </dipole>
   <energy>
    <i name="e_fr_energy">     -9.55212918 </i>
    <i name="e_wo_entrp">     -9.55800977 </i>
    <i name="e_0_energy">     -9.55408938 </i>
   </energy>
  </scstep>
  <scstep>
   <time name="dav">    1.17    1.17</time>
   <time name="total">    2.11    2.11</time>
   <dipole>
    <v name="dipole">      0.00000000       0.00000000       0.00038438 </v>
    <i name="Tr[quadrupol]">      0.66247211 </i>
    <i name="Echarged">      0.00000000 </i>
    <i name="Edipol_quadrupol">      0.00000000 </i>
    <i name="Eion">      0.00000000 </i>
   </dipole>
   <energy>
    <i name="e_fr_energy">     -9.54603419 </i>
    <i name="e_wo_entrp">     -9.55192317 </i>
    <i name="e_0_energy">     -9.54799719 </i>
   </energy>
  </scstep>
  <scstep>
   <time name="dav">    1.13    1.13</time>
   <time name="total">    2.07    2.07</time>
   <dipole>
    <v name="dipole">      0.00000000       0.00000000       0.00051240 </v>
    <i name="Tr[quadrupol]">      0.66318090 </i>
    <i name="Echarged">      0.00000000 </i>
    <i name="Edipol_quadrupol">      0.00000000 </i>
    <i name="Eion">      0.00000000 </i>
   </dipole>
   <energy>
    <i name="e_fr_energy">     -9.54931949 </i>
    <i name="e_wo_entrp">     -9.55550897 </i>
    <i name="e_0_energy">     -9.55138265 </i>
   </energy>
  </scstep>
  <scstep>
   <time name="dav">    1.08    1.08</time>
   <time name="total">    2.01    2.02</time>
   <dipole>
    <v name="dipole">      0.00000000       0.00000000       0.00005841 </v>
    <i name="Tr[quadrupol]">      0.66690715 </i>
    <i name="Echarged">      0.00000000 </i>
    <i name="Edipol_quadrupol">      0.00000000 </i>
    <i name="Eion">      0.00000000 </i>
   </dipole>
   <energy>
    <i name="e_fr_energy">     -9.54949936 </i>
    <i name="e_wo_entrp">     -9.55568667 </i>
    <i name="e_0_energy">     -9.55156180 </i>
   </energy>
  </scstep>
  <scstep>
   <time name="dav">    1.12    1.12</time>
   <time name="total">    2.07    2.11</time>
   <dipole>
    <v name="dipole">      0.00000000       0.00000000       0.00004918 </v>
    <i name="Tr[quadrupol]">      0.66888712 </i>
    <i name="Echarged">      0.00000000 </i>
    <i name="Edipol_quadrupol">      0.00000000 </i>
    <i name="Eion">      0.00000000 </i>
   </dipole>
   <energy>
    <i name="e_fr_energy">     -9.55090679 </i>
    <i name="e_wo_entrp">     -9.55670475 </i>
    <i name="e_0_energy">     -9.55283944 </i>
   </energy>
  </scstep>
  <scstep>
   <time name="dav">    1.08    1.08</time>
   <time name="total">    1.87    1.87</time>
   <dipole>
    <v name="dipole">      0.00000000       0.00000000       0.00004847 </v>
    <i name="Tr[quadrupol]">      0.66903519 </i>
    <i name="Echarged">      0.00000000 </i>
    <i name="Edipol_quadrupol">      0.00000000 </i>
    <i name="Eion">      0.00000000 </i>
   </dipole>
   <energy>
    <i name="alphaZ">      0.31013038 </i>
    <i name="ewald">    218.26681851 </i>
    <i name="hartreedc">   -947.96837673 </i>
    <i name="XCdc">     56.01119606 </i>
    <i name="pawpsdc">    944.81603957 </i>
    <i name="pawaedc">   -948.54673999 </i>
    <i name="eentropy">      0.00580771 </i>
    <i name="bandstr">   -197.15872430 </i>
    <i name="atom">    864.71286919 </i>
    <i name="e_fr_energy">     -9.55097961 </i>
    <i name="e_wo_entrp">     -9.55678732 </i>
    <i name="e_0_energy">     -9.55291551 </i>
   </energy>
  </scstep>
  <structure>
   <crystal>
    <varray name="basis" >
     <v>      10.16000000       0.00000000       0.00000000 </v>
     <v>       0.00000000      11.76000000       0.00000000 </v>
     <v>       0.00000000       0.00000000      15.00000000 </v>
    </varray>
    <i name="volume">   1792.22400000 </i>
    <varray name="rec_basis" >
     <v>       0.09842520       0.00000000       0.00000000 </v>
     <v>       0.00000000       0.08503401       0.00000000 </v>
     <v>       0.00000000       0.00000000       0.06666667 </v>
    </varray>
   </crystal>
   <varray name="positions" >
    <v>       0.00000000       0.00000000       0.07673000 </v>
    <v>       0.00000000       0.00000000       0.00000000 </v>
   </varray>
  </structure>
  <varray name="forces" >
   <v>       0.00000000       0.00000000       8.15103594 </v>
   <v>       0.00000000       0.00000000      -8.15103594 </v>
  </varray>
  <varray name="stress" >
   <v>       0.11789488       0.00000000       0.00000000 </v>
   <v>       0.00000000      -0.11399183       0.00000000 </v>
   <v>       0.00000000       0.00000000       8.34161502 </v>
  </varray>
  <energy>
   <i name="e_fr_energy">     -9.55097961 </i>
   <i name="e_wo_entrp">     -9.55291551 </i>
   <i name="e_0_energy">      0.00580771 </i>
  </energy>
  <time name="totalsc">   25.39   25.50</time>
 </calculation>
 <calculation>
  <scstep>
   <time name="dav">    1.06    1.06</time>
   <time name="total">    2.00    2.00</time>
   <dipole>
    <v name="dipole">      0.00000000       0.00000000       0.00004298 </v>
    <i name="Tr[quadrupol]">      0.67010611 </i>
    <i name="Echarged">      0.00000000 </i>
    <i name="Edipol_quadrupol">      0.00000000 </i>
    <i name="Eion">      0.00000000 </i>
   </dipole>
   <energy>
    <i name="alphaZ">      0.31013005 </i>
    <i name="ewald">     35.56439175 </i>
    <i name="hartreedc">   -796.99488203 </i>
    <i name="XCdc">     54.50431522 </i>
    <i name="pawpsdc">    945.51711861 </i>
    <i name="pawaedc">   -949.24680739 </i>
    <i name="eentropy">      0.00582228 </i>
    <i name="bandstr">   -154.18388755 </i>
    <i name="atom">    864.71286919 </i>
    <i name="e_fr_energy">      0.18907013 </i>
    <i name="e_wo_entrp">      0.18324786 </i>
    <i name="e_0_energy">      0.18712938 </i>
   </energy>
  </scstep>
  <scstep>
   <time name="dav">    1.08    1.08</time>
   <time name="total">    2.02    2.02</time>
   <dipole>
    <v name="dipole">      0.00000000       0.00000000      -0.00036520 </v>
    <i name="Tr[quadrupol]">      0.63447111 </i>
    <i name="Echarged">      0.00000000 </i>
    <i name="Edipol_quadrupol">      0.00000000 </i>
    <i name="Eion">      0.00000000 </i>
   </dipole>
   <energy>
    <i name="e_fr_energy">     -4.42850102 </i>
    <i name="e_wo_entrp">     -4.43431857 </i>
    <i name="e_0_energy">     -4.43044020 </i>
   </energy>
  </scstep>
  <scstep>
   <time name="dav">    1.45    1.45</time>
   <time name="total">    2.39    2.40</time>
   <dipole>
    <v name="dipole">      0.00000000       0.00000000       0.00008638 </v>
    <i name="Tr[quadrupol]">      0.61886298 </i>
    <i name="Echarged">      0.00000000 </i>
    <i name="Edipol_quadrupol">      0.00000000 </i>
    <i name="Eion">      0.00000000 </i>
   </dipole>
   <energy>
    <i name="e_fr_energy">     -4.98612388 </i>
    <i name="e_wo_entrp">     -4.99194812 </i>
    <i name="e_0_energy">     -4.98806529 </i>
   </energy>
  </scstep>
  <scstep>
   <time name="dav">    1.19    1.19</time>
   <time name="total">    2.13    2.15</time>
   <dipole>
    <v name="dipole">      0.00000000       0.00000000       0.00031439 </v>
    <i name="Tr[quadrupol]">      0.59572736 </i>
    <i name="Echarged">      0.00000000 </i>
    <i name="Edipol_quadrupol">      0.00000000 </i>
    <i name="Eion">      0.00000000 </i>
   </dipole>
   <energy>
    <i name="e_fr_energy">     -5.02601927 </i>
    <i name="e_wo_entrp">     -5.03185273 </i>
    <i name="e_0_energy">     -5.02796376 </i>
   </energy>
  </scstep>
  <scstep>
   <time name="dav">    1.09    1.09</time>
   <time name="total">    2.03    2.04</time>
   <dipole>
    <v name="dipole">      0.00000000       0.00000000       0.00028286 </v>
    <i name="Tr[quadrupol]">      0.55565258 </i>
    <i name="Echarged">      0.00000000 </i>
    <i name="Edipol_quadrupol">      0.00000000 </i>
    <i name="Eion">      0.00000000 </i>
   </dipole>
   <energy>
    <i name="e_fr_energy">     -5.06817638 </i>
    <i name="e_wo_entrp">     -5.07401635 </i>
    <i name="e_0_energy">     -5.07012304 </i>
   </energy>
  </scstep>
  <scstep>
   <time name="dav">    1.08    1.08</time>
   <time name="total">    2.03    2.03</time>
   <dipole>
    <v name="dipole">      0.00000000       0.00000000       0.00022504 </v>
    <i name="Tr[quadrupol]">      0.54521545 </i>
    <i name="Echarged">      0.00000000 </i>
    <i name="Edipol_quadrupol">      0.00000000 </i>
    <i name="Eion">      0.00000000 </i>
   </dipole>
   <energy>
    <i name="e_fr_energy">     -5.07520333 </i>
    <i name="e_wo_entrp">     -5.08103307 </i>
    <i name="e_0_energy">     -5.07714658 </i>
   </energy>
  </scstep>
  <scstep>
   <time name="dav">    1.05    1.05</time>
   <time name="total">    2.00    2.01</time>
   <dipole>
    <v name="dipole">      0.00000000       0.00000000       0.00008071 </v>
    <i name="Tr[quadrupol]">      0.52515235 </i>
    <i name="Echarged">      0.00000000 </i>
    <i name="Edipol_quadrupol">      0.00000000 </i>
    <i name="Eion">      0.00000000 </i>
   </dipole>
   <energy>
    <i name="e_fr_energy">     -5.08016817 </i>
    <i name="e_wo_entrp">     -5.08597573 </i>
    <i name="e_0_energy">     -5.08210402 </i>
   </energy>
  </scstep>
  <scstep>
   <time name="dav">    1.00    1.00</time>
   <time name="total">    1.96    1.97</time>
   <dipole>
    <v name="dipole">      0.00000000       0.00000000       0.00000081 </v>
    <i name="Tr[quadrupol]">      0.51370271 </i>
    <i name="Echarged">      0.00000000 </i>
    <i name="Edipol_quadrupol">      0.00000000 </i>
    <i name="Eion">      0.00000000 </i>
   </dipole>
   <energy>
    <i name="e_fr_energy">     -5.08175446 </i>
    <i name="e_wo_entrp">     -5.08755310 </i>
    <i name="e_0_energy">     -5.08368734 </i>
   </energy>
  </scstep>
  <scstep>
   <time name="dav">    0.81    0.81</time>
   <time name="total">    1.76    1.76</time>
   <dipole>
    <v name="dipole">      0.00000000       0.00000000      -0.00001217 </v>
    <i name="Tr[quadrupol]">      0.50744819 </i>
    <i name="Echarged">      0.00000000 </i>
    <i name="Edipol_quadrupol">      0.00000000 </i>
    <i name="Eion">      0.00000000 </i>
   </dipole>
   <energy>
    <i name="e_fr_energy">     -5.08233811 </i>
    <i name="e_wo_entrp">     -5.08813646 </i>
    <i name="e_0_energy">     -5.08427090 </i>
   </energy>
  </scstep>
  <scstep>
   <time name="dav">    0.77    0.77</time>
   <time name="total">    1.72    1.72</time>
   <dipole>
    <v name="dipole">      0.00000000       0.00000000      -0.00000264 </v>
    <i name="Tr[quadrupol]">      0.51295814 </i>
    <i name="Echarged">      0.00000000 </i>
    <i name="Edipol_quadrupol">      0.00000000 </i>
    <i name="Eion">      0.00000000 </i>
   </dipole>
   <energy>
    <i name="e_fr_energy">     -5.08194218 </i>
    <i name="e_wo_entrp">     -5.08774067 </i>
    <i name="e_0_energy">     -5.08387501 </i>
   </energy>
  </scstep>
  <scstep>
   <time name="dav">    0.77    0.77</time>
   <time name="total">    1.72    1.73</time>
   <dipole>
    <v name="dipole">      0.00000000       0.00000000      -0.00002910 </v>
    <i name="Tr[quadrupol]">      0.49371706 </i>
    <i name="Echarged">      0.00000000 </i>
    <i name="Edipol_quadrupol">      0.00000000 </i>
    <i name="Eion">      0.00000000 </i>
   </dipole>
   <energy>
    <i name="e_fr_energy">     -5.08268732 </i>
    <i name="e_wo_entrp">     -5.08849493 </i>
    <i name="e_0_energy">     -5.08462319 </i>
   </energy>
  </scstep>
  <scstep>
   <time name="dav">    1.09    1.09</time>
   <time name="total">    2.04    2.04</time>
   <dipole>
    <v name="dipole">      0.00000000       0.00000000      -0.00010128 </v>
    <i name="Tr[quadrupol]">      0.44102781 </i>
    <i name="Echarged">      0.00000000 </i>
    <i name="Edipol_quadrupol">      0.00000000 </i>
    <i name="Eion">      0.00000000 </i>
   </dipole>
   <energy>
    <i name="e_fr_energy">     -5.08421174 </i>
    <i name="e_wo_entrp">     -5.09009664 </i>
    <i name="e_0_energy">     -5.08617337 </i>
   </energy>
  </scstep>
  <scstep>
   <time name="dav">    0.83    0.83</time>
   <time name="total">    1.78    1.78</time>
   <dipole>
    <v name="dipole">      0.00000000       0.00000000      -0.00009843 </v>
    <i name="Tr[quadrupol]">      0.44470313 </i>
    <i name="Echarged">      0.00000000 </i>
    <i name="Edipol_quadrupol">      0.00000000 </i>
    <i name="Eion">      0.00000000 </i>
   </dipole>
   <energy>
    <i name="e_fr_energy">     -5.08455483 </i>
    <i name="e_wo_entrp">     -5.09039688 </i>
    <i name="e_0_energy">     -5.08650218 </i>
   </energy>
  </scstep>
  <scstep>
   <time name="dav">    0.84    0.84</time>
   <time name="total">    1.61    1.61</time>
   <dipole>
    <v name="dipole">      0.00000000       0.00000000      -0.00010181 </v>
    <i name="Tr[quadrupol]">      0.44069108 </i>
    <i name="Echarged">      0.00000000 </i>
    <i name="Edipol_quadrupol">      0.00000000 </i>
    <i name="Eion">      0.00000000 </i>
   </dipole>
   <energy>
    <i name="alphaZ">      0.31013241 </i>
    <i name="ewald">     35.56439175 </i>
    <i name="hartreedc">   -778.72477133 </i>
    <i name="XCdc">     52.74730001 </i>
    <i name="pawpsdc">    694.61799767 </i>
    <i name="pawaedc">   -698.03829722 </i>
    <i name="eentropy">      0.00581763 </i>
    <i name="bandstr">   -176.28004021 </i>
    <i name="atom">    864.71286919 </i>
    <i name="e_fr_energy">     -5.08460010 </i>
    <i name="e_wo_entrp">     -5.09041773 </i>
    <i name="e_0_energy">     -5.08653931 </i>
   </energy>
  </scstep>
  <structure>
   <crystal>
    <varray name="basis" >
     <v>      10.16000000       0.00000000       0.00000000 </v>
     <v>       0.00000000      11.76000000       0.00000000 </v>
     <v>       0.00000000       0.00000000      15.00000000 </v>
    </varray>
    <i name="volume">   1792.22400000 </i>
    <varray name="rec_basis" >
     <v>       0.09842520       0.00000000       0.00000000 </v>
     <v>       0.00000000       0.08503401       0.00000000 </v>
     <v>       0.00000000       0.00000000       0.06666667 </v>
    </varray>
   </crystal>
   <varray name="positions" >
    <v>       0.00000000       0.00000000       0.10294517 </v>
    <v>       0.00000000       0.00000000      -0.02621517 </v>
   </varray>
  </structure>
  <varray name="forces" >
   <v>       0.00000000       0.00000000      -6.42779913 </v>
   <v>       0.00000000       0.00000000       6.42779913 </v>
  </varray>
  <varray name="stress" >
   <v>      -0.09073592       0.00000000       0.00000000 </v>
   <v>       0.00000000      -0.10906863       0.00000000 </v>
   <v>       0.00000000       0.00000000     -11.21878538 </v>
  </varray>
  <energy>
   <i name="e_fr_energy">     -5.08460010 </i>
   <i name="e_wo_entrp">     -5.08653931 </i>
   <i name="e_0_energy">      0.00581763 </i>
  </energy>
  <time name="totalsc">   30.38   30.44</time>
 </calculation>
 <calculation>
  <scstep>
   <time name="dav">    1.05    1.05</time>
   <time name="total">    1.98    1.98</time>
   <dipole>
    <v name="dipole">      0.00000000       0.00000000      -0.00011027 </v>
    <i name="Tr[quadrupol]">      0.42571789 </i>
    <i name="Echarged">      0.00000000 </i>
    <i name="Edipol_quadrupol">      0.00000000 </i>
    <i name="Eion">      0.00000000 </i>
   </dipole>
   <energy>
    <i name="alphaZ">      0.31013282 </i>
    <i name="ewald">     93.81616252 </i>
    <i name="hartreedc">   -832.04517212 </i>
    <i name="XCdc">     53.24278098 </i>
    <i name="pawpsdc">    694.67107784 </i>
    <i name="pawaedc">   -698.09103148 </i>
    <i name="eentropy">      0.00581149 </i>
    <i name="bandstr">   -183.38651633 </i>
    <i name="atom">    864.71286919 </i>
    <i name="e_fr_energy">     -6.76388508 </i>
    <i name="e_wo_entrp">     -6.76969658 </i>
    <i name="e_0_energy">     -6.76582225 </i>
   </energy>
  </scstep>
  <scstep>
   <time name="dav">    1.25    1.25</time>
   <time name="total">    2.17    2.17</time>
   <dipole>
    <v name="dipole">      0.00000000       0.00000000      -0.00003341 </v>
    <i name="Tr[quadrupol]">      0.45146667 </i>
    <i name="Echarged">      0.00000000 </i>
    <i name="Edipol_quadrupol">      0.00000000 </i>
    <i name="Eion">      0.00000000 </i>
   </dipole>
   <energy>
    <i name="e_fr_energy">     -7.52041204 </i>
    <i name="e_wo_entrp">     -7.52624341 </i>
    <i name="e_0_energy">     -7.52235583 </i>
   </energy>
  </scstep>
  <scstep>
   <time name="dav">    1.26    1.26</time>
   <time name="total">    2.19    2.19</time>
   <dipole>
    <v name="dipole">      0.00000000       0.00000000      -0.00006673 </v>
    <i name="Tr[quadrupol]">      0.45103652 </i>
    <i name="Echarged">      0.00000000 </i>
    <i name="Edipol_quadrupol">      0.00000000 </i>
    <i name="Eion">      0.00000000 </i>
   </dipole>
   <energy>
    <i name="e_fr_energy">     -7.64658570 </i>
    <i name="e_wo_entrp">     -7.65240687 </i>
    <i name="e_0_energy">     -7.64852609 </i>
   </energy>
  </scstep>
  <scstep>
   <time name="dav">    1.23    1.23</time>
   <time name="total">    2.17    2.17</time>
   <dipole>
    <v name="dipole">      0.00000000       0.00000000       0.00007154 </v>
    <i name="Tr[quadrupol]">      0.44271635 </i>
    <i name="Echarged">      0.00000000 </i>
    <i name="Edipol_quadrupol">      0.00000000 </i>
    <i name="Eion">      0.00000000 </i>
   </dipole>
   <energy>
    <i name="e_fr_energy">     -7.65707252 </i>
    <i name="e_wo_entrp">     -7.66287202 </i>
    <i name="e_0_energy">     -7.65900569 </i>
   </energy>
  </scstep>
  <scstep>
   <time name="dav">    1.21    1.24</time>
   <time name="total">    2.14    2.18</time>
   <dipole>
    <v name="dipole">      0.00000000       0.00000000       0.00142598 </v>
    <i name="Tr[quadrupol]">      0.44245800 </i>
    <i name="Echarged">      0.00000000 </i>
    <i name="Edipol_quadrupol">      0.00000000 </i>
    <i name="Eion">      0.00000000 </i>
   </dipole>
   <energy>
    <i name="e_fr_energy">     -7.67437674 </i>
    <i name="e_wo_entrp">     -7.68021733 </i>
    <i name="e_0_energy">     -7.67632360 </i>
   </energy>
  </scstep>
  <scstep>
   <time name="dav">    1.32    1.32</time>
   <time name="total">    2.25    2.25</time>
   <dipole>
    <v name="dipole">      0.00000000       0.00000000       0.00140341 </v>
    <i name="Tr[quadrupol]">      0.44507709 </i>
    <i name="Echarged">      0.00000000 </i>
    <i name="Edipol_quadrupol">      0.00000000 </i>
    <i name="Eion">      0.00000000 </i>
   </dipole>
   <energy>
    <i name="e_fr_energy">     -7.67878953 </i>
    <i name="e_wo_entrp">     -7.68468668 </i>
    <i name="e_0_energy">     -7.68075524 </i>
   </energy>
  </scstep>
  <scstep>
   <time name="dav">    1.25    1.29</time>
   <time name="total">    2.23    2.28</time>
   <dipole>
    <v name="dipole">      0.00000000       0.00000000       0.00116442 </v>
    <i name="Tr[quadrupol]">      0.44780065 </i>
    <i name="Echarged">      0.00000000 </i>
    <i name="Edipol_quadrupol">      0.00000000 </i>
    <i name="Eion">      0.00000000 </i>
   </dipole>
   <energy>
    <i name="e_fr_energy">     -7.68125874 </i>
    <i name="e_wo_entrp">     -7.68709193 </i>
    <i name="e_0_energy">     -7.68320314 </i>
   </energy>
  </scstep>
  <scstep>
   <time name="dav">    0.95    0.95</time>
   <time name="total">    1.89    1.89</time>
   <dipole>
    <v name="dipole">      0.00000000       0.00000000       0.00009059 </v>
    <i name="Tr[quadrupol]">      0.44970793 </i>
    <i name="Echarged">      0.00000000 </i>
    <i name="Edipol_quadrupol">      0.00000000 </i>
    <i name="Eion">      0.00000000 </i>
   </dipole>
   <energy>
    <i name="e_fr_energy">     -7.68183531 </i>
    <i name="e_wo_entrp">     -7.68763338 </i>
    <i name="e_0_energy">     -7.68376800 </i>
   </energy>
  </scstep>
  <scstep>
   <time name="dav">    0.83    0.83</time>
   <time name="total">    1.77    1.78</time>
   <dipole>
    <v name="dipole">      0.00000000       0.00000000      -0.00039386 </v>
    <i name="Tr[quadrupol]">      0.44977674 </i>
    <i name="Echarged">      0.00000000 </i>
    <i name="Edipol_quadrupol">      0.00000000 </i>
    <i name="Eion">      0.00000000 </i>
   </dipole>
   <energy>
    <i name="e_fr_energy">     -7.68173294 </i>
    <i name="e_wo_entrp">     -7.68753151 </i>
    <i name="e_0_energy">     -7.68366579 </i>
   </energy>
  </scstep>
  <scstep>
   <time name="dav">    0.78    0.78</time>
   <time name="total">    1.72    1.76</time>
   <dipole>
    <v name="dipole">      0.00000000       0.00000000      -0.00047867 </v>
    <i name="Tr[quadrupol]">      0.45157923 </i>
    <i name="Echarged">      0.00000000 </i>
    <i name="Edipol_quadrupol">      0.00000000 </i>
    <i name="Eion">      0.00000000 </i>
   </dipole>
   <energy>
    <i name="e_fr_energy">     -7.68201898 </i>
    <i name="e_wo_entrp">     -7.68781689 </i>
    <i name="e_0_energy">     -7.68395162 </i>
   </energy>
  </scstep>
  <scstep>
   <time name="dav">    0.91    0.91</time>
   <time name="total">    1.85    1.85</time>
   <dipole>
    <v name="dipole">      0.00000000       0.00000000       0.00006131 </v>
    <i name="Tr[quadrupol]">      0.45404696 </i>
    <i name="Echarged">      0.00000000 </i>
    <i name="Edipol_quadrupol">      0.00000000 </i>
    <i name="Eion">      0.00000000 </i>
   </dipole>
   <energy>
    <i name="e_fr_energy">     -7.68231596 </i>
    <i name="e_wo_entrp">     -7.68811395 </i>
    <i name="e_0_energy">     -7.68424862 </i>
   </energy>
  </scstep>
  <scstep>
   <time name="dav">    1.25    1.25</time>
   <time name="total">    2.19    2.24</time>
   <dipole>
    <v name="dipole">      0.00000000       0.00000000      -0.00002166 </v>
    <i name="Tr[quadrupol]">      0.45902846 </i>
    <i name="Echarged">      0.00000000 </i>
    <i name="Edipol_quadrupol">      0.00000000 </i>
    <i name="Eion">      0.00000000 </i>
   </dipole>
   <energy>
    <i name="e_fr_energy">     -7.68267839 </i>
    <i name="e_wo_entrp">     -7.68847631 </i>
    <i name="e_0_energy">     -7.68461103 </i>
   </energy>
  </scstep>
  <scstep>
   <time name="dav">    0.88    0.88</time>
   <time name="total">    1.83    1.83</time>
   <dipole>
    <v name="dipole">      0.00000000       0.00000000      -0.00000582 </v>
    <i name="Tr[quadrupol]">      0.46237304 </i>
    <i name="Echarged">      0.00000000 </i>
    <i name="Edipol_quadrupol">      0.00000000 </i>
    <i name="Eion">      0.00000000 </i>
   </dipole>
   <energy>
    <i name="e_fr_energy">     -7.68278448 </i>
    <i name="e_wo_entrp">     -7.68858240 </i>
    <i name="e_0_energy">     -7.68471712 </i>
   </energy>
  </scstep>
  <scstep>
   <time name="dav">    1.12    1.12</time>
   <time name="total">    1.90    1.90</time>
   <dipole>
    <v name="dipole">      0.00000000       0.00000000       0.00001281 </v>
    <i name="Tr[quadrupol]">      0.46723778 </i>
    <i name="Echarged">      0.00000000 </i>
    <i name="Edipol_quadrupol">      0.00000000 </i>
    <i name="Eion">      0.00000000 </i>
   </dipole>
   <energy>
    <i name="alphaZ">      0.31012680 </i>
    <i name="ewald">     93.81616252 </i>
    <i name="hartreedc">   -835.67531317 </i>
    <i name="XCdc">     53.51684156 </i>
    <i name="pawpsdc">    730.59422786 </i>
    <i name="pawaedc">   -733.96459208 </i>
    <i name="eentropy">      0.00579796 </i>
    <i name="bandstr">   -180.99895848 </i>
    <i name="atom">    864.71286919 </i>
    <i name="e_fr_energy">     -7.68283784 </i>
    <i name="e_wo_entrp">     -7.68863581 </i>
    <i name="e_0_energy">     -7.68477050 </i>
   </energy>
  </scstep>
  <structure>
   <crystal>
    <varray name="basis" >
     <v>      10.16000000       0.00000000       0.00000000 </v>
     <v>       0.00000000      11.76000000       0.00000000 </v>
     <v>       0.00000000       0.00000000      15.00000000 </v>
    </varray>
    <i name="volume">   1792.22400000 </i>
    <varray name="rec_basis" >
     <v>       0.09842520       0.00000000       0.00000000 </v>
     <v>       0.00000000       0.08503401       0.00000000 </v>
     <v>       0.00000000       0.00000000       0.06666667 </v>
    </varray>
   </crystal>
   <varray name="positions" >
    <v>       0.00000000       0.00000000       0.09138692 </v>
    <v>       0.00000000       0.00000000      -0.01465692 </v>
   </varray>
  </structure>
  <varray name="forces" >
   <v>       0.00000000       0.00000000      -8.24348291 </v>
   <v>       0.00000000       0.00000000       8.24348291 </v>
  </varray>
  <varray name="stress" >
   <v>      -0.09621211       0.00000000       0.00000000 </v>
   <v>       0.00000000      -0.09892362       0.00000000 </v>
   <v>       0.00000000       0.00000000     -11.83585448 </v>
  </varray>
  <energy>
   <i name="e_fr_energy">     -7.68283784 </i>
   <i name="e_wo_entrp">     -7.68477050 </i>
   <i name="e_0_energy">      0.00579796 </i>
  </energy>
  <time name="totalsc">   31.48   31.72</time>
 </calculation>
 <calculation>
  <scstep>
   <time name="dav">    1.05    1.05</time>
   <time name="total">    1.98    1.99</time>
   <dipole>
    <v name="dipole">      0.00000000       0.00000000      -0.00030608 </v>
    <i name="Tr[quadrupol]">      0.47170446 </i>
    <i name="Echarged">      0.00000000 </i>
    <i name="Edipol_quadrupol">      0.00000000 </i>
    <i name="Eion">      0.00000000 </i>
   </dipole>
   <energy>
    <i name="alphaZ">      0.30994083 </i>
    <i name="ewald">    146.39467819 </i>
    <i name="hartreedc">   -879.98708120 </i>
    <i name="XCdc">     54.10909233 </i>
    <i name="pawpsdc">    730.58632406 </i>
    <i name="pawaedc">   -733.95664340 </i>
    <i name="eentropy">      0.00579795 </i>
    <i name="bandstr">   -191.20872425 </i>
    <i name="atom">    864.71286919 </i>
    <i name="e_fr_energy">     -9.03374631 </i>
    <i name="e_wo_entrp">     -9.03954426 </i>
    <i name="e_0_energy">     -9.03567896 </i>
   </energy>
  </scstep>
  <scstep>
   <time name="dav">    1.14    1.14</time>
   <time name="total">    2.07    2.07</time>
   <dipole>
    <v name="dipole">      0.00000000       0.00000000      -0.00016205 </v>
    <i name="Tr[quadrupol]">      0.48261556 </i>
    <i name="Echarged">      0.00000000 </i>
    <i name="Edipol_quadrupol">      0.00000000 </i>
    <i name="Eion">      0.00000000 </i>
   </dipole>
   <energy>
    <i name="e_fr_energy">     -9.27312364 </i>
    <i name="e_wo_entrp">     -9.27892155 </i>
    <i name="e_0_energy">     -9.27505627 </i>
   </energy>
  </scstep>
  <scstep>
   <time name="dav">    1.70    1.70</time>
   <time name="total">    2.63    2.64</time>
   <dipole>
    <v name="dipole">      0.00000000       0.00000000      -0.00007440 </v>
    <i name="Tr[quadrupol]">      0.49190580 </i>
    <i name="Echarged">      0.00000000 </i>
    <i name="Edipol_quadrupol">      0.00000000 </i>
    <i name="Eion">      0.00000000 </i>
   </dipole>
   <energy>
    <i name="e_fr_energy">     -9.35379202 </i>
    <i name="e_wo_entrp">     -9.35958993 </i>
    <i name="e_0_energy">     -9.35572465 </i>
   </energy>
  </scstep>
  <scstep>
   <time name="dav">    1.53    1.53</time>
   <time name="total">    2.47    2.47</time>
   <dipole>
    <v name="dipole">      0.00000000       0.00000000       0.00007220 </v>
    <i name="Tr[quadrupol]">      0.49876789 </i>
    <i name="Echarged">      0.00000000 </i>
    <i name="Edipol_quadrupol">      0.00000000 </i>
    <i name="Eion">      0.00000000 </i>
   </dipole>
   <energy>
    <i name="e_fr_energy">     -9.35041817 </i>
    <i name="e_wo_entrp">     -9.35621609 </i>
    <i name="e_0_energy">     -9.35235081 </i>
   </energy>
  </scstep>
  <scstep>
   <time name="dav">    1.42    1.42</time>
   <time name="total">    2.36    2.36</time>
   <dipole>
    <v name="dipole">      0.00000000       0.00000000       0.00007063 </v>
    <i name="Tr[quadrupol]">      0.50358039 </i>
    <i name="Echarged">      0.00000000 </i>
    <i name="Edipol_quadrupol">      0.00000000 </i>
    <i name="Eion">      0.00000000 </i>
   </dipole>
   <energy>
    <i name="e_fr_energy">     -9.35897223 </i>
    <i name="e_wo_entrp">     -9.36477013 </i>
    <i name="e_0_energy">     -9.36090486 </i>
   </energy>
  </scstep>
  <scstep>
   <time name="dav">    1.63    1.63</time>
   <time name="total">    2.56    2.56</time>
   <dipole>
    <v name="dipole">      0.00000000       0.00000000       0.00003645 </v>
    <i name="Tr[quadrupol]">      0.51356309 </i>
    <i name="Echarged">      0.00000000 </i>
    <i name="Edipol_quadrupol">      0.00000000 </i>
    <i name="Eion">      0.00000000 </i>
   </dipole>
   <energy>
    <i name="e_fr_energy">     -9.36050227 </i>
    <i name="e_wo_entrp">     -9.36630035 </i>
    <i name="e_0_energy">     -9.36243497 </i>
   </energy>
  </scstep>
  <scstep>
   <time name="dav">    1.51    1.51</time>
   <time name="total">    2.44    2.45</time>
   <dipole>
    <v name="dipole">      0.00000000       0.00000000       0.00000239 </v>
    <i name="Tr[quadrupol]">      0.52058410 </i>
    <i name="Echarged">      0.00000000 </i>
    <i name="Edipol_quadrupol">      0.00000000 </i>
    <i name="Eion">      0.00000000 </i>
   </dipole>
   <energy>
    <i name="e_fr_energy">     -9.36185933 </i>
    <i name="e_wo_entrp">     -9.36765767 </i>
    <i name="e_0_energy">     -9.36379211 </i>
   </energy>
  </scstep>
  <scstep>
   <time name="dav">    1.70    1.70</time>
   <time name="total">    2.63    2.64</time>
   <dipole>
    <v name="dipole">      0.00000000       0.00000000      -0.00000597 </v>
    <i name="Tr[quadrupol]">      0.52530827 </i>
    <i name="Echarged">      0.00000000 </i>
    <i name="Edipol_quadrupol">      0.00000000 </i>
    <i name="Eion">      0.00000000 </i>
   </dipole>
   <energy>
    <i name="e_fr_energy">     -9.36213244 </i>
    <i name="e_wo_entrp">     -9.36793076 </i>
    <i name="e_0_energy">     -9.36406521 </i>
   </energy>
  </scstep>
  <scstep>
   <time name="dav">    1.73    1.73</time>
   <time name="total">    2.66    2.67</time>
   <dipole>
    <v name="dipole">      0.00000000       0.00000000      -0.00002590 </v>
    <i name="Tr[quadrupol]">      0.53654607 </i>
    <i name="Echarged">      0.00000000 </i>
    <i name="Edipol_quadrupol">      0.00000000 </i>
    <i name="Eion">      0.00000000 </i>
   </dipole>
   <energy>
    <i name="e_fr_energy">     -9.36245245 </i>
    <i name="e_wo_entrp">     -9.36825036 </i>
    <i name="e_0_energy">     -9.36438509 </i>
   </energy>
  </scstep>
  <scstep>
   <time name="dav">    1.54    1.54</time>
   <time name="total">    2.32    2.33</time>
   <dipole>
    <v name="dipole">      0.00000000       0.00000000      -0.00002800 </v>
    <i name="Tr[quadrupol]">      0.53780534 </i>
    <i name="Echarged">      0.00000000 </i>
    <i name="Edipol_quadrupol">      0.00000000 </i>
    <i name="Eion">      0.00000000 </i>
   </dipole>
   <energy>
    <i name="alphaZ">      0.31012573 </i>
    <i name="ewald">    146.39467819 </i>
    <i name="hartreedc">   -885.09184444 </i>
    <i name="XCdc">     54.48016226 </i>
    <i name="pawpsdc">    796.47460465 </i>
    <i name="pawaedc">   -799.91203864 </i>
    <i name="eentropy">      0.00579795 </i>
    <i name="bandstr">   -186.73683762 </i>
    <i name="atom">    864.71286919 </i>
    <i name="e_fr_energy">     -9.36248273 </i>
    <i name="e_wo_entrp">     -9.36828069 </i>
    <i name="e_0_energy">     -9.36441539 </i>
   </energy>
  </scstep>
  <structure>
   <crystal>
    <varray name="basis" >
     <v>      10.16000000       0.00000000       0.00000000 </v>
     <v>       0.00000000      11.76000000       0.00000000 </v>
     <v>       0.00000000       0.00000000      15.00000000 </v>
    </varray>
    <i name="volume">   1792.22400000 </i>
    <varray name="rec_basis" >
     <v>       0.09842520       0.00000000       0.00000000 </v>
     <v>       0.00000000       0.08503401       0.00000000 </v>
     <v>       0.00000000       0.00000000       0.06666667 </v>
    </varray>
   </crystal>
   <varray name="positions" >
    <v>       0.00000000       0.00000000       0.08401714 </v>
    <v>       0.00000000       0.00000000      -0.00728714 </v>
   </varray>
  </structure>
  <varray name="forces" >
   <v>       0.00000000       0.00000000      -6.08372415 </v>
   <v>       0.00000000       0.00000000       6.08372415 </v>
  </varray>
  <varray name="stress" >
   <v>      -0.03343351       0.00000000       0.00000000 </v>
   <v>       0.00000000      -0.01906818       0.00000000 </v>
   <v>       0.00000000       0.00000000      -7.48594644 </v>
  </varray>
  <energy>
   <i name="e_fr_energy">     -9.36248273 </i>
   <i name="e_wo_entrp">     -9.36441539 </i>
   <i name="e_0_energy">      0.00579795 </i>
  </energy>
  <time name="totalsc">   27.32   27.36</time>
 </calculation>
 <calculation>
  <scstep>
   <time name="dav">    1.05    1.05</time>
   <time name="total">    2.03    2.03</time>
   <dipole>
    <v name="dipole">      0.00000000       0.00000000      -0.00002795 </v>
    <i name="Tr[quadrupol]">      0.53779961 </i>
    <i name="Echarged">      0.00000000 </i>
    <i name="Edipol_quadrupol">      0.00000000 </i>
    <i name="Eion">      0.00000000 </i>
   </dipole>
   <energy>
    <i name="alphaZ">      0.31012573 </i>
    <i name="ewald">    174.09662913 </i>
    <i name="hartreedc">   -906.68466776 </i>
    <i name="XCdc">     54.82472922 </i>
    <i name="pawpsdc">    796.47462451 </i>
    <i name="pawaedc">   -799.91205894 </i>
    <i name="eentropy">      0.00579794 </i>
    <i name="bandstr">   -193.57307434 </i>
    <i name="atom">    864.71286919 </i>
    <i name="e_fr_energy">     -9.74502533 </i>
    <i name="e_wo_entrp">     -9.75082327 </i>
    <i name="e_0_energy">     -9.74695798 </i>
   </energy>
  </scstep>
  <scstep>
   <time name="dav">    1.24    1.24</time>
   <time name="total">    2.17    2.18</time>
   <dipole>
    <v name="dipole">      0.00000000       0.00000000       0.00004471 </v>
    <i name="Tr[quadrupol]">      0.54065017 </i>
    <i name="Echarged">      0.00000000 </i>
    <i name="Edipol_quadrupol">      0.00000000 </i>
    <i name="Eion">      0.00000000 </i>
   </dipole>
   <energy>
    <i name="e_fr_energy">     -9.76235849 </i>
    <i name="e_wo_entrp">     -9.76815689 </i>
    <i name="e_0_energy">     -9.76429129 </i>
   </energy>
  </scstep>
  <scstep>
   <time name="dav">    1.21    1.21</time>
   <time name="total">    2.15    2.15</time>
   <dipole>
    <v name="dipole">      0.00000000       0.00000000       0.00004357 </v>
    <i name="Tr[quadrupol]">      0.54491341 </i>
    <i name="Echarged">      0.00000000 </i>
    <i name="Edipol_quadrupol">      0.00000000 </i>
    <i name="Eion">      0.00000000 </i>
   </dipole>
   <energy>
    <i name="e_fr_energy">     -9.78776897 </i>
    <i name="e_wo_entrp">     -9.79356749 </i>
    <i name="e_0_energy">     -9.78970181 </i>
   </energy>
  </scstep>
  <scstep>
   <time name="dav">    1.17    1.17</time>
   <time name="total">    2.11    2.12</time>
   <dipole>
    <v name="dipole">      0.00000000       0.00000000      -0.00000026 </v>
    <i name="Tr[quadrupol]">      0.55700824 </i>
    <i name="Echarged">      0.00000000 </i>
    <i name="Edipol_quadrupol">      0.00000000 </i>
    <i name="Eion">      0.00000000 </i>
   </dipole>
   <energy>
    <i name="e_fr_energy">     -9.78910350 </i>
    <i name="e_wo_entrp">     -9.79490149 </i>
    <i name="e_0_energy">     -9.79103616 </i>
   </energy>
  </scstep>
  <scstep>
   <time name="dav">    1.15    1.15</time>
   <time name="total">    2.08    2.08</time>
   <dipole>
    <v name="dipole">      0.00000000       0.00000000      -0.00000909 </v>
    <i name="Tr[quadrupol]">      0.56334626 </i>
    <i name="Echarged">      0.00000000 </i>
    <i name="Edipol_quadrupol">      0.00000000 </i>
    <i name="Eion">      0.00000000 </i>
   </dipole>
   <energy>
    <i name="e_fr_energy">     -9.79006314 </i>
    <i name="e_wo_entrp">     -9.79586158 </i>
    <i name="e_0_energy">     -9.79199596 </i>
   </energy>
  </scstep>
  <scstep>
   <time name="dav">    1.11    1.11</time>
   <time name="total">    2.04    2.08</time>
   <dipole>
    <v name="dipole">      0.00000000       0.00000000      -0.00002523 </v>
    <i name="Tr[quadrupol]">      0.57287461 </i>
    <i name="Echarged">      0.00000000 </i>
    <i name="Edipol_quadrupol">      0.00000000 </i>
    <i name="Eion">      0.00000000 </i>
   </dipole>
   <energy>
    <i name="e_fr_energy">     -9.79061927 </i>
    <i name="e_wo_entrp">     -9.79642125 </i>
    <i name="e_0_energy">     -9.79255326 </i>
   </energy>
  </scstep>
  <scstep>
   <time name="dav">    1.11    1.11</time>
   <time name="total">    2.05    2.05</time>
   <dipole>
    <v name="dipole">      0.00000000       0.00000000      -0.00003288 </v>
    <i name="Tr[quadrupol]">      0.57849611 </i>
    <i name="Echarged">      0.00000000 </i>
    <i name="Edipol_quadrupol">      0.00000000 </i>
    <i name="Eion">      0.00000000 </i>
   </dipole>
   <energy>
    <i name="e_fr_energy">     -9.79103973 </i>
    <i name="e_wo_entrp">     -9.79684172 </i>
    <i name="e_0_energy">     -9.79297372 </i>
   </energy>
  </scstep>
  <scstep>
   <time name="dav">    1.11    1.11</time>
   <time name="total">    2.05    2.05</time>
   <dipole>
    <v name="dipole">      0.00000000       0.00000000      -0.00003823 </v>
    <i name="Tr[quadrupol]">      0.58410186 </i>
    <i name="Echarged">      0.00000000 </i>
    <i name="Edipol_quadrupol">      0.00000000 </i>
    <i name="Eion">      0.00000000 </i>
   </dipole>
   <energy>
    <i name="e_fr_energy">     -9.79118350 </i>
    <i name="e_wo_entrp">     -9.79698157 </i>
    <i name="e_0_energy">     -9.79311619 </i>
   </energy>
  </scstep>
  <scstep>
   <time name="dav">    1.15    1.15</time>
   <time name="total">    1.93    1.93</time>
   <dipole>
    <v name="dipole">      0.00000000       0.00000000      -0.00003825 </v>
    <i name="Tr[quadrupol]">      0.58427972 </i>
    <i name="Echarged">      0.00000000 </i>
    <i name="Edipol_quadrupol">      0.00000000 </i>
    <i name="Eion">      0.00000000 </i>
   </dipole>
   <energy>
    <i name="alphaZ">      0.31012510 </i>
    <i name="ewald">    174.09662913 </i>
    <i name="hartreedc">   -910.08786898 </i>
    <i name="XCdc">     55.05279856 </i>
    <i name="pawpsdc">    846.51315329 </i>
    <i name="pawaedc">   -850.03473630 </i>
    <i name="eentropy">      0.00579791 </i>
    <i name="bandstr">   -190.35994511 </i>
    <i name="atom">    864.71286919 </i>
    <i name="e_fr_energy">     -9.79117722 </i>
    <i name="e_wo_entrp">     -9.79697512 </i>
    <i name="e_0_energy">     -9.79310985 </i>
   </energy>
  </scstep>
  <structure>
   <crystal>
    <varray name="basis" >
     <v>      10.16000000       0.00000000       0.00000000 </v>
     <v>       0.00000000      11.76000000       0.00000000 </v>
     <v>       0.00000000       0.00000000      15.00000000 </v>
    </varray>
    <i name="volume">   1792.22400000 </i>
    <varray name="rec_basis" >
     <v>       0.09842520       0.00000000       0.00000000 </v>
     <v>       0.00000000       0.08503401       0.00000000 </v>
     <v>       0.00000000       0.00000000       0.06666667 </v>
    </varray>
   </crystal>
   <varray name="positions" >
    <v>       0.00000000       0.00000000       0.08090272 </v>
    <v>       0.00000000       0.00000000      -0.00417272 </v>
   </varray>
  </structure>
  <varray name="forces" >
   <v>       0.00000000       0.00000000      -2.62181605 </v>
   <v>       0.00000000       0.00000000       2.62181605 </v>
  </varray>
  <varray name="stress" >
   <v>      -0.08125093       0.00000000       0.00000000 </v>
   <v>       0.00000000      -0.08614812       0.00000000 </v>
   <v>       0.00000000       0.00000000      -3.13911831 </v>
  </varray>
  <energy>
   <i name="e_fr_energy">     -9.79117722 </i>
   <i name="e_wo_entrp">     -9.79310985 </i>
   <i name="e_0_energy">      0.00579791 </i>
  </energy>
  <time name="totalsc">   21.79   21.88</time>
 </calculation>
 <calculation>
  <scstep>
   <time name="dav">    1.25    1.25</time>
   <time name="total">    2.18    2.18</time>
   <dipole>
    <v name="dipole">      0.00000000       0.00000000       0.00003070 </v>
    <i name="Tr[quadrupol]">      0.58481544 </i>
    <i name="Echarged">      0.00000000 </i>
    <i name="Edipol_quadrupol">      0.00000000 </i>
    <i name="Eion">      0.00000000 </i>
   </dipole>
   <energy>
    <i name="alphaZ">      0.31012593 </i>
    <i name="ewald">    191.88001240 </i>
    <i name="hartreedc">   -923.32162603 </i>
    <i name="XCdc">     55.28362829 </i>
    <i name="pawpsdc">    846.53477127 </i>
    <i name="pawaedc">   -850.05631438 </i>
    <i name="eentropy">      0.00579791 </i>
    <i name="bandstr">   -195.18624110 </i>
    <i name="atom">    864.71286919 </i>
    <i name="e_fr_energy">     -9.83697653 </i>
    <i name="e_wo_entrp">     -9.84277444 </i>
    <i name="e_0_energy">     -9.83890917 </i>
   </energy>
  </scstep>
  <scstep>
   <time name="dav">    1.16    1.16</time>
   <time name="total">    2.09    2.09</time>
   <dipole>
    <v name="dipole">      0.00000000       0.00000000       0.00000538 </v>
    <i name="Tr[quadrupol]">      0.58811356 </i>
    <i name="Echarged">      0.00000000 </i>
    <i name="Edipol_quadrupol">      0.00000000 </i>
    <i name="Eion">      0.00000000 </i>
   </dipole>
   <energy>
    <i name="e_fr_energy">     -9.83940138 </i>
    <i name="e_wo_entrp">     -9.84519930 </i>
    <i name="e_0_energy">     -9.84133402 </i>
   </energy>
  </scstep>
  <scstep>
   <time name="dav">    1.14    1.14</time>
   <time name="total">    2.09    2.09</time>
   <dipole>
    <v name="dipole">      0.00000000       0.00000000       0.00000189 </v>
    <i name="Tr[quadrupol]">      0.59203312 </i>
    <i name="Echarged">      0.00000000 </i>
    <i name="Edipol_quadrupol">      0.00000000 </i>
    <i name="Eion">      0.00000000 </i>
   </dipole>
   <energy>
    <i name="e_fr_energy">     -9.84646127 </i>
    <i name="e_wo_entrp">     -9.85225921 </i>
    <i name="e_0_energy">     -9.84839392 </i>
   </energy>
  </scstep>
  <scstep>
   <time name="dav">    1.11    1.11</time>
   <time name="total">    2.04    2.04</time>
   <dipole>
    <v name="dipole">      0.00000000       0.00000000      -0.00002171 </v>
    <i name="Tr[quadrupol]">      0.60089380 </i>
    <i name="Echarged">      0.00000000 </i>
    <i name="Edipol_quadrupol">      0.00000000 </i>
    <i name="Eion">      0.00000000 </i>
   </dipole>
   <energy>
    <i name="e_fr_energy">     -9.84697763 </i>
    <i name="e_wo_entrp">     -9.85277554 </i>
    <i name="e_0_energy">     -9.84891027 </i>
   </energy>
  </scstep>
  <scstep>
   <time name="dav">    1.06    1.06</time>
   <time name="total">    1.99    2.00</time>
   <dipole>
    <v name="dipole">      0.00000000       0.00000000      -0.00002552 </v>
    <i name="Tr[quadrupol]">      0.60546550 </i>
    <i name="Echarged">      0.00000000 </i>
    <i name="Edipol_quadrupol">      0.00000000 </i>
    <i name="Eion">      0.00000000 </i>
   </dipole>
   <energy>
    <i name="e_fr_energy">     -9.84748135 </i>
    <i name="e_wo_entrp">     -9.85327935 </i>
    <i name="e_0_energy">     -9.84941401 </i>
   </energy>
  </scstep>
  <scstep>
   <time name="dav">    1.11    1.11</time>
   <time name="total">    2.04    2.05</time>
   <dipole>
    <v name="dipole">      0.00000000       0.00000000      -0.00003391 </v>
    <i name="Tr[quadrupol]">      0.61315465 </i>
    <i name="Echarged">      0.00000000 </i>
    <i name="Edipol_quadrupol">      0.00000000 </i>
    <i name="Eion">      0.00000000 </i>
   </dipole>
   <energy>
    <i name="e_fr_energy">     -9.84774860 </i>
    <i name="e_wo_entrp">     -9.85354717 </i>
    <i name="e_0_energy">     -9.84968146 </i>
   </energy>
  </scstep>
  <scstep>
   <time name="dav">    1.10    1.10</time>
   <time name="total">    2.03    2.04</time>
   <dipole>
    <v name="dipole">      0.00000000       0.00000000      -0.00003734 </v>
    <i name="Tr[quadrupol]">      0.61730243 </i>
    <i name="Echarged">      0.00000000 </i>
    <i name="Edipol_quadrupol">      0.00000000 </i>
    <i name="Eion">      0.00000000 </i>
   </dipole>
   <energy>
    <i name="e_fr_energy">     -9.84795792 </i>
    <i name="e_wo_entrp">     -9.85375656 </i>
    <i name="e_0_energy">     -9.84989080 </i>
   </energy>
  </scstep>
  <scstep>
   <time name="dav">    1.11    1.11</time>
   <time name="total">    1.89    1.89</time>
   <dipole>
    <v name="dipole">      0.00000000       0.00000000      -0.00003934 </v>
    <i name="Tr[quadrupol]">      0.62166606 </i>
    <i name="Echarged">      0.00000000 </i>
    <i name="Edipol_quadrupol">      0.00000000 </i>
    <i name="Eion">      0.00000000 </i>
   </dipole>
   <energy>
    <i name="alphaZ">      0.31012504 </i>
    <i name="ewald">    191.88001240 </i>
    <i name="hartreedc">   -925.71036761 </i>
    <i name="XCdc">     55.43537720 </i>
    <i name="pawpsdc">    884.29189259 </i>
    <i name="pawaedc">   -887.88561945 </i>
    <i name="eentropy">      0.00579801 </i>
    <i name="bandstr">   -192.88812159 </i>
    <i name="atom">    864.71286919 </i>
    <i name="e_fr_energy">     -9.84803424 </i>
    <i name="e_wo_entrp">     -9.85383225 </i>
    <i name="e_0_energy">     -9.84996691 </i>
   </energy>
  </scstep>
  <structure>
   <crystal>
    <varray name="basis" >
     <v>      10.16000000       0.00000000       0.00000000 </v>
     <v>       0.00000000      11.76000000       0.00000000 </v>
     <v>       0.00000000       0.00000000      15.00000000 </v>
    </varray>
    <i name="volume">   1792.22400000 </i>
    <varray name="rec_basis" >
     <v>       0.09842520       0.00000000       0.00000000 </v>
     <v>       0.00000000       0.08503401       0.00000000 </v>
     <v>       0.00000000       0.00000000       0.06666667 </v>
    </varray>
   </crystal>
   <varray name="positions" >
    <v>       0.00000000       0.00000000       0.07911811 </v>
    <v>       0.00000000       0.00000000      -0.00238811 </v>
   </varray>
  </structure>
  <varray name="forces" >
   <v>       0.00000000       0.00000000       0.72892687 </v>
   <v>       0.00000000       0.00000000      -0.72892687 </v>
  </varray>
  <varray name="stress" >
   <v>      -0.08029753       0.00000000       0.00000000 </v>
   <v>       0.00000000      -0.10147115       0.00000000 </v>
   <v>       0.00000000       0.00000000       0.68702463 </v>
  </varray>
  <energy>
   <i name="e_fr_energy">     -9.84803424 </i>
   <i name="e_wo_entrp">     -9.84996691 </i>
   <i name="e_0_energy">      0.00579801 </i>
  </energy>
  <time name="totalsc">   19.51   19.54</time>
 </calculation>
 <calculation>
  <scstep>
   <time name="dav">    1.25    1.25</time>
   <time name="total">    2.18    2.18</time>
   <dipole>
    <v name="dipole">      0.00000000       0.00000000      -0.00003962 </v>
    <i name="Tr[quadrupol]">      0.62267681 </i>
    <i name="Echarged">      0.00000000 </i>
    <i name="Edipol_quadrupol">      0.00000000 </i>
    <i name="Eion">      0.00000000 </i>
   </dipole>
   <energy>
    <i name="alphaZ">      0.31012502 </i>
    <i name="ewald">    187.87999520 </i>
    <i name="hartreedc">   -922.77577418 </i>
    <i name="XCdc">     55.38317882 </i>
    <i name="pawpsdc">    884.29050593 </i>
    <i name="pawaedc">   -887.88421762 </i>
    <i name="eentropy">      0.00579791 </i>
    <i name="bandstr">   -191.77362609 </i>
    <i name="atom">    864.71286919 </i>
    <i name="e_fr_energy">     -9.85114583 </i>
    <i name="e_wo_entrp">     -9.85694373 </i>
    <i name="e_0_energy">     -9.85307846 </i>
   </energy>
  </scstep>
  <scstep>
   <time name="dav">    1.09    1.09</time>
   <time name="total">    2.01    2.01</time>
   <dipole>
    <v name="dipole">      0.00000000       0.00000000       0.00004079 </v>
    <i name="Tr[quadrupol]">      0.62567588 </i>
    <i name="Echarged">      0.00000000 </i>
    <i name="Edipol_quadrupol">      0.00000000 </i>
    <i name="Eion">      0.00000000 </i>
   </dipole>
   <energy>
    <i name="e_fr_energy">     -9.85070615 </i>
    <i name="e_wo_entrp">     -9.85650437 </i>
    <i name="e_0_energy">     -9.85263889 </i>
   </energy>
  </scstep>
  <scstep>
   <time name="dav">    1.06    1.06</time>
   <time name="total">    1.99    1.99</time>
   <dipole>
    <v name="dipole">      0.00000000       0.00000000       0.00012785 </v>
    <i name="Tr[quadrupol]">      0.62707786 </i>
    <i name="Echarged">      0.00000000 </i>
    <i name="Edipol_quadrupol">      0.00000000 </i>
    <i name="Eion">      0.00000000 </i>
   </dipole>
   <energy>
    <i name="e_fr_energy">     -9.85145948 </i>
    <i name="e_wo_entrp">     -9.85725793 </i>
    <i name="e_0_energy">     -9.85339230 </i>
   </energy>
  </scstep>
  <scstep>
   <time name="dav">    1.14    1.14</time>
   <time name="total">    1.92    1.92</time>
   <dipole>
    <v name="dipole">      0.00000000       0.00000000      -0.00004588 </v>
    <i name="Tr[quadrupol]">      0.63032929 </i>
    <i name="Echarged">      0.00000000 </i>
    <i name="Edipol_quadrupol">      0.00000000 </i>
    <i name="Eion">      0.00000000 </i>
   </dipole>
   <energy>
    <i name="alphaZ">      0.31012464 </i>
    <i name="ewald">    187.87999520 </i>
    <i name="hartreedc">   -922.18138762 </i>
    <i name="XCdc">     55.34646164 </i>
    <i name="pawpsdc">    876.62727878 </i>
    <i name="pawaedc">   -880.20363290 </i>
    <i name="eentropy">      0.00579810 </i>
    <i name="bandstr">   -192.34902958 </i>
    <i name="atom">    864.71286919 </i>
    <i name="e_fr_energy">     -9.85152256 </i>
    <i name="e_wo_entrp">     -9.85732066 </i>
    <i name="e_0_energy">     -9.85345526 </i>
   </energy>
  </scstep>
  <structure>
   <crystal>
    <varray name="basis" >
     <v>      10.16000000       0.00000000       0.00000000 </v>
     <v>       0.00000000      11.76000000       0.00000000 </v>
     <v>       0.00000000       0.00000000      15.00000000 </v>
    </varray>
    <i name="volume">   1792.22400000 </i>
    <varray name="rec_basis" >
     <v>       0.09842520       0.00000000       0.00000000 </v>
     <v>       0.00000000       0.08503401       0.00000000 </v>
     <v>       0.00000000       0.00000000       0.06666667 </v>
    </varray>
   </crystal>
   <varray name="positions" >
    <v>       0.00000000       0.00000000       0.07950633 </v>
    <v>       0.00000000       0.00000000      -0.00277633 </v>
   </varray>
  </structure>
  <varray name="forces" >
   <v>       0.00000000       0.00000000      -0.12629118 </v>
   <v>       0.00000000       0.00000000       0.12629118 </v>
  </varray>
  <varray name="stress" >
   <v>      -0.08798611       0.00000000       0.00000000 </v>
   <v>       0.00000000      -0.08927233       0.00000000 </v>
   <v>       0.00000000       0.00000000      -0.25754943 </v>
  </varray>
  <energy>
   <i name="e_fr_energy">     -9.85152256 </i>
   <i name="e_wo_entrp">     -9.85345526 </i>
   <i name="e_0_energy">      0.00579810 </i>
  </energy>
  <time name="totalsc">   11.26   11.31</time>
 </calculation>
 <calculation>
  <scstep>
   <time name="dav">    1.09    1.09</time>
   <time name="total">    2.03    2.03</time>
   <dipole>
    <v name="dipole">      0.00000000       0.00000000       0.00011823 </v>
    <i name="Tr[quadrupol]">      0.63203430 </i>
    <i name="Echarged">      0.00000000 </i>
    <i name="Edipol_quadrupol">      0.00000000 </i>
    <i name="Eion">      0.00000000 </i>
   </dipole>
   <energy>
    <i name="alphaZ">      0.31010868 </i>
    <i name="ewald">    188.46592276 </i>
    <i name="hartreedc">   -922.64050149 </i>
    <i name="XCdc">     55.35554443 </i>
    <i name="pawpsdc">    876.12003857 </i>
    <i name="pawaedc">   -879.69656368 </i>
    <i name="eentropy">      0.00579820 </i>
    <i name="bandstr">   -192.48492645 </i>
    <i name="atom">    864.71286919 </i>
    <i name="e_fr_energy">     -9.85170980 </i>
    <i name="e_wo_entrp">     -9.85750800 </i>
    <i name="e_0_energy">     -9.85364254 </i>
   </energy>
  </scstep>
  <scstep>
   <time name="dav">    1.12    1.12</time>
   <time name="total">    1.90    1.91</time>
   <dipole>
    <v name="dipole">      0.00000000       0.00000000       0.00003357 </v>
    <i name="Tr[quadrupol]">      0.63361275 </i>
    <i name="Echarged">      0.00000000 </i>
    <i name="Edipol_quadrupol">      0.00000000 </i>
    <i name="Eion">      0.00000000 </i>
   </dipole>
   <energy>
    <i name="alphaZ">      0.31012579 </i>
    <i name="ewald">    188.46592276 </i>
    <i name="hartreedc">   -922.69570181 </i>
    <i name="XCdc">     55.35893703 </i>
    <i name="pawpsdc">    876.39295082 </i>
    <i name="pawaedc">   -879.97046333 </i>
    <i name="eentropy">      0.00579971 </i>
    <i name="bandstr">   -192.43217344 </i>
    <i name="atom">    864.71286919 </i>
    <i name="e_fr_energy">     -9.85173329 </i>
    <i name="e_wo_entrp">     -9.85753300 </i>
    <i name="e_0_energy">     -9.85366653 </i>
   </energy>
  </scstep>
  <structure>
   <crystal>
    <varray name="basis" >
     <v>      10.16000000       0.00000000       0.00000000 </v>
     <v>       0.00000000      11.76000000       0.00000000 </v>
     <v>       0.00000000       0.00000000      15.00000000 </v>
    </varray>
    <i name="volume">   1792.22400000 </i>
    <varray name="rec_basis" >
     <v>       0.09842520       0.00000000       0.00000000 </v>
     <v>       0.00000000       0.08503401       0.00000000 </v>
     <v>       0.00000000       0.00000000       0.06666667 </v>
    </varray>
   </crystal>
   <varray name="positions" >
    <v>       0.00000000       0.00000000       0.07944900 </v>
    <v>       0.00000000       0.00000000      -0.00271900 </v>
   </varray>
  </structure>
  <varray name="forces" >
   <v>       0.00000000       0.00000000      -0.01602245 </v>
   <v>       0.00000000       0.00000000       0.01602245 </v>
  </varray>
  <varray name="stress" >
   <v>      -0.06469597       0.00000000       0.00000000 </v>
   <v>       0.00000000      -0.08877879       0.00000000 </v>
   <v>       0.00000000       0.00000000      -0.12326839 </v>
  </varray>
  <energy>
   <i name="e_fr_energy">     -9.85173329 </i>
   <i name="e_wo_entrp">     -9.85366653 </i>
   <i name="e_0_energy">      0.00579971 </i>
  </energy>
  <time name="totalsc">    7.10    7.11</time>
 </calculation>
 <calculation>
  <scstep>
   <time name="dav">    1.09    1.09</time>
   <time name="total">    2.02    2.02</time>
   <dipole>
    <v name="dipole">      0.00000000       0.00000000      -0.00003934 </v>
    <i name="Tr[quadrupol]">      0.63481040 </i>
    <i name="Echarged">      0.00000000 </i>
    <i name="Edipol_quadrupol">      0.00000000 </i>
    <i name="Eion">      0.00000000 </i>
   </dipole>
   <energy>
    <i name="alphaZ">      0.31012504 </i>
    <i name="ewald">    188.54936193 </i>
    <i name="hartreedc">   -922.77965713 </i>
    <i name="XCdc">     55.36132285 </i>
    <i name="pawpsdc">    876.50114153 </i>
    <i name="pawaedc">   -880.07929859 </i>
    <i name="eentropy">      0.00580022 </i>
    <i name="bandstr">   -192.43342041 </i>
    <i name="atom">    864.71286919 </i>
    <i name="e_fr_energy">     -9.85175539 </i>
    <i name="e_wo_entrp">     -9.85755560 </i>
    <i name="e_0_energy">     -9.85368879 </i>
   </energy>
  </scstep>
  <scstep>
   <time name="dav">    1.10    1.10</time>
   <time name="total">    1.88    1.88</time>
   <dipole>
    <v name="dipole">      0.00000000       0.00000000      -0.00003730 </v>
    <i name="Tr[quadrupol]">      0.63618387 </i>
    <i name="Echarged">      0.00000000 </i>
    <i name="Edipol_quadrupol">      0.00000000 </i>
    <i name="Eion">      0.00000000 </i>
   </dipole>
   <energy>
    <i name="alphaZ">      0.31012516 </i>
    <i name="ewald">    188.54936193 </i>
    <i name="hartreedc">   -922.79854268 </i>
    <i name="XCdc">     55.36244875 </i>
    <i name="pawpsdc">    876.65767859 </i>
    <i name="pawaedc">   -880.23632034 </i>
    <i name="eentropy">      0.00579903 </i>
    <i name="bandstr">   -192.41518326 </i>
    <i name="atom">    864.71286919 </i>
    <i name="e_fr_energy">     -9.85176364 </i>
    <i name="e_wo_entrp">     -9.85756267 </i>
    <i name="e_0_energy">     -9.85369665 </i>
   </energy>
  </scstep>
  <structure>
   <crystal>
    <varray name="basis" >
     <v>      10.16000000       0.00000000       0.00000000 </v>
     <v>       0.00000000      11.76000000       0.00000000 </v>
     <v>       0.00000000       0.00000000      15.00000000 </v>
    </varray>
    <i name="volume">   1792.22400000 </i>
    <varray name="rec_basis" >
     <v>       0.09842520       0.00000000       0.00000000 </v>
     <v>       0.00000000       0.08503401       0.00000000 </v>
     <v>       0.00000000       0.00000000       0.06666667 </v>
    </varray>
   </crystal>
   <varray name="positions" >
    <v>       0.00000000       0.00000000       0.07944085 </v>
    <v>       0.00000000       0.00000000      -0.00271085 </v>
   </varray>
  </structure>
  <varray name="forces" >
   <v>       0.00000000       0.00000000       0.00660703 </v>
   <v>       0.00000000       0.00000000      -0.00660703 </v>
  </varray>
  <varray name="stress" >
   <v>      -0.10153159       0.00000000       0.00000000 </v>
   <v>       0.00000000      -0.10523146       0.00000000 </v>
   <v>       0.00000000       0.00000000      -0.11879541 </v>
  </varray>
  <energy>
   <i name="e_fr_energy">     -9.85176364 </i>
   <i name="e_wo_entrp">     -9.85369665 </i>
   <i name="e_0_energy">      0.00579903 </i>
  </energy>
  <time name="totalsc">    6.91    6.93</time>
  <eigenvalues>
   <array>
    <dimension dim="1">band</dimension>
    <dimension dim="2">kpoint</dimension>
    <dimension dim="3">spin</dimension>
    <field>eigene</field>
    <field>occ</field>
    <set>
     <set comment="spin 1">
      <set comment="kpoint 1">
       <r>  -32.5346    1.0000 </r>
       <r>  -20.6211    1.0000 </r>
       <r>  -13.4034    1.0000 </r>
       <r>  -13.2678    1.0000 </r>
       <r>  -13.2670    1.0000 </r>
       <r>   -6.9361    1.0015 </r>
       <r>   -6.9347    0.9984 </r>
       <r>   -0.2899    0.0000 </r>
       <r>    0.1832    0.0000 </r>
       <r>    0.6841    0.0000 </r>
       <r>    0.9170    0.0000 </r>
      </set>
      <set comment="kpoint 2">
       <r>  -32.5345    1.0000 </r>
       <r>  -20.6211    1.0000 </r>
       <r>  -13.4034    1.0000 </r>
       <r>  -13.2678    1.0000 </r>
       <r>  -13.2670    1.0000 </r>
       <r>   -6.9361    1.0016 </r>
       <r>   -6.9347    0.9985 </r>
       <r>   -0.1464    0.0000 </r>
       <r>    0.3188    0.0000 </r>
       <r>    0.4044    0.0000 </r>
       <r>    0.7570    0.0000 </r>
      </set>
      <set comment="kpoint 3">
       <r>  -32.5345    1.0000 </r>
       <r>  -20.6211    1.0000 </r>
       <r>  -13.4034    1.0000 </r>
       <r>  -13.2678    1.0000 </r>
       <r>  -13.2670    1.0000 </r>
       <r>   -6.9361    1.0016 </r>
       <r>   -6.9347    0.9984 </r>
       <r>   -0.1957    0.0000 </r>
       <r>    0.2475    0.0000 </r>
       <r>    0.3091    0.0000 </r>
       <r>    0.6633    0.0000 </r>
      </set>
      <set comment="kpoint 4">
       <r>  -32.5345    1.0000 </r>
       <r>  -20.6211    1.0000 </r>
       <r>  -13.4034    1.0000 </r>
       <r>  -13.2678    1.0000 </r>
       <r>  -13.2670    1.0000 </r>
       <r>   -6.9361    1.0016 </r>
       <r>   -6.9347    0.9984 </r>
       <r>   -0.0560    0.0000 </r>
       <r>    0.3847    0.0000 </r>
       <r>    0.4444    0.0000 </r>
       <r>    0.5221    0.0000 </r>
      </set>
     </set>
     <set comment="spin 2">
      <set comment="kpoint 1">
       <r>  -31.3103    1.0000 </r>
       <r>  -18.8252    1.0000 </r>
       <r>  -12.4762    1.0000 </r>
       <r>  -11.4217    1.0000 </r>
       <r>  -11.4172    1.0000 </r>
       <r>   -4.6552   -0.0000 </r>
       <r>   -4.6502   -0.0000 </r>
       <r>   -0.1945    0.0000 </r>
       <r>    0.2472    0.0000 </r>
       <r>    0.7980    0.0000 </r>
       <r>    0.8932    0.0000 </r>
      </set>
      <set comment="kpoint 2">
       <r>  -31.3103    1.0000 </r>
       <r>  -18.8252    1.0000 </r>
       <r>  -12.4762    1.0000 </r>
       <r>  -11.4217    1.0000 </r>
[...]
       <r>    -8.2041     0.0000     5.0000 </r>
       <r>    -8.0815     0.0000     5.0000 </r>
       <r>    -7.9588     0.0000     5.0000 </r>
       <r>    -7.8361    -0.0000     5.0000 </r>
       <r>    -7.7135    -0.0000     5.0000 </r>
       <r>    -7.5908    -0.0000     5.0000 </r>
       <r>    -7.4682    -0.0000     5.0000 </r>
       <r>    -7.3455    -0.0000     5.0000 </r>
       <r>    -7.2229    -0.0030     4.9996 </r>
       <r>    -7.1002    -0.3372     4.9583 </r>
       <r>    -6.9775     3.2119     5.3522 </r>
       <r>    -6.8549    13.2930     6.9827 </r>
       <r>    -6.7322     0.2587     7.0144 </r>
       <r>    -6.6096    -0.1172     7.0000 </r>
       <r>    -6.4869    -0.0003     7.0000 </r>
       <r>    -6.3643    -0.0000     7.0000 </r>
       <r>    -6.2416    -0.0000     7.0000 </r>
       <r>    -6.1190     0.0000     7.0000 </r>
       <r>    -5.9963     0.0000     7.0000 </r>
       <r>    -5.8736     0.0000     7.0000 </r>
       <r>    -5.7510     0.0000     7.0000 </r>
       <r>    -5.6283     0.0000     7.0000 </r>
       <r>    -5.5057     0.0000     7.0000 </r>
       <r>    -5.3830     0.0000     7.0000 </r>
       <r>    -5.2604     0.0000     7.0000 </r>
       <r>    -5.1377     0.0000     7.0000 </r>
       <r>    -5.0151     0.0000     7.0000 </r>
       <r>    -4.8924     0.0000     7.0000 </r>
       <r>    -4.7697     0.0000     7.0000 </r>
       <r>    -4.6471     0.0000     7.0000 </r>
       <r>    -4.5244     0.0000     7.0000 </r>
       <r>    -4.4018     0.0000     7.0000 </r>
       <r>    -4.2791     0.0000     7.0000 </r>
       <r>    -4.1565     0.0000     7.0000 </r>
       <r>    -4.0338     0.0000     7.0000 </r>
       <r>    -3.9112     0.0000     7.0000 </r>
       <r>    -3.7885     0.0000     7.0000 </r>
       <r>    -3.6658     0.0000     7.0000 </r>
       <r>    -3.5432     0.0000     7.0000 </r>
       <r>    -3.4205     0.0000     7.0000 </r>
       <r>    -3.2979     0.0000     7.0000 </r>
       <r>    -3.1752     0.0000     7.0000 </r>
       <r>    -3.0526     0.0000     7.0000 </r>
       <r>    -2.9299     0.0000     7.0000 </r>
       <r>    -2.8073     0.0000     7.0000 </r>
       <r>    -2.6846     0.0000     7.0000 </r>
       <r>    -2.5619     0.0000     7.0000 </r>
       <r>    -2.4393     0.0000     7.0000 </r>
       <r>    -2.3166     0.0000     7.0000 </r>
       <r>    -2.1940     0.0000     7.0000 </r>
       <r>    -2.0713     0.0000     7.0000 </r>
       <r>    -1.9487     0.0000     7.0000 </r>
       <r>    -1.8260     0.0000     7.0000 </r>
       <r>    -1.7034     0.0000     7.0000 </r>
       <r>    -1.5807     0.0000     7.0000 </r>
       <r>    -1.4580     0.0000     7.0000 </r>
       <r>    -1.3354     0.0000     7.0000 </r>
       <r>    -1.2127     0.0000     7.0000 </r>
       <r>    -1.0901    -0.0000     7.0000 </r>
       <r>    -0.9674    -0.0000     7.0000 </r>
       <r>    -0.8448    -0.0000     7.0000 </r>
       <r>    -0.7221    -0.0000     7.0000 </r>
       <r>    -0.5994    -0.0000     7.0000 </r>
       <r>    -0.4768    -0.0112     6.9986 </r>
       <r>    -0.3541     0.0126     7.0002 </r>
       <r>    -0.2315     1.1578     7.1422 </r>
       <r>    -0.1088     3.4363     7.5637 </r>
       <r>     0.0138     3.4405     7.9857 </r>
       <r>     0.1365     0.1667     8.0061 </r>
       <r>     0.2591     2.0744     8.2605 </r>
       <r>     0.3818     6.5332     9.0619 </r>
       <r>     0.5045     7.8903    10.0297 </r>
       <r>     0.6271     3.0554    10.4044 </r>
       <r>     0.7498     2.8835    10.7581 </r>
       <r>     0.8724     1.2958    10.9170 </r>
       <r>     0.9951     0.6662    10.9988 </r>
       <r>     1.1177     0.0172    11.0009 </r>
       <r>     1.2404    -0.0071    11.0000 </r>
       <r>     1.3630    -0.0000    11.0000 </r>
       <r>     1.4857    -0.0000    11.0000 </r>
       <r>     1.6084    -0.0000    11.0000 </r>
       <r>     1.7310     0.0000    11.0000 </r>
       <r>     1.8537     0.0000    11.0000 </r>
       <r>     1.9763     0.0000    11.0000 </r>
       <r>     2.0990     0.0000    11.0000 </r>
       <r>     2.2216     0.0000    11.0000 </r>
       <r>     2.3443     0.0000    11.0000 </r>
       <r>     2.4669     0.0000    11.0000 </r>
       <r>     2.5896     0.0000    11.0000 </r>
      </set>
      <set comment="spin 2">
       <r>   -34.2071     0.0000     0.0000 </r>
       <r>   -34.0845     0.0000     0.0000 </r>
       <r>   -33.9618     0.0000     0.0000 </r>
       <r>   -33.8392     0.0000     0.0000 </r>
       <r>   -33.7165     0.0000     0.0000 </r>
       <r>   -33.5939     0.0000     0.0000 </r>
       <r>   -33.4712     0.0000     0.0000 </r>
       <r>   -33.3485     0.0000     0.0000 </r>
       <r>   -33.2259     0.0000     0.0000 </r>
       <r>   -33.1032     0.0000     0.0000 </r>
       <r>   -32.9806     0.0000     0.0000 </r>
       <r>   -32.8579     0.0000     0.0000 </r>
       <r>   -32.7353     0.0000     0.0000 </r>
       <r>   -32.6126     0.0000     0.0000 </r>
       <r>   -32.4900     0.0000     0.0000 </r>
       <r>   -32.3673     0.0000     0.0000 </r>
       <r>   -32.2446     0.0000     0.0000 </r>
       <r>   -32.1220    -0.0000    -0.0000 </r>
       <r>   -31.9993    -0.0000    -0.0000 </r>
       <r>   -31.8767    -0.0000    -0.0000 </r>
       <r>   -31.7540    -0.0000    -0.0000 </r>
       <r>   -31.6314    -0.0002    -0.0000 </r>
       <r>   -31.5087    -0.0684    -0.0084 </r>
       <r>   -31.3861     0.2453     0.0217 </r>
       <r>   -31.2634     6.7753     0.8527 </r>
       <r>   -31.1407     1.3536     1.0187 </r>
       <r>   -31.0181    -0.1516     1.0001 </r>
       <r>   -30.8954    -0.0012     1.0000 </r>
       <r>   -30.7728    -0.0000     1.0000 </r>
       <r>   -30.6501    -0.0000     1.0000 </r>
       <r>   -30.5275     0.0000     1.0000 </r>
       <r>   -30.4048     0.0000     1.0000 </r>
       <r>   -30.2822     0.0000     1.0000 </r>
       <r>   -30.1595     0.0000     1.0000 </r>
       <r>   -30.0368     0.0000     1.0000 </r>
       <r>   -29.9142     0.0000     1.0000 </r>
       <r>   -29.7915     0.0000     1.0000 </r>
       <r>   -29.6689     0.0000     1.0000 </r>
       <r>   -29.5462     0.0000     1.0000 </r>
       <r>   -29.4236     0.0000     1.0000 </r>
       <r>   -29.3009     0.0000     1.0000 </r>
       <r>   -29.1782     0.0000     1.0000 </r>
       <r>   -29.0556     0.0000     1.0000 </r>
       <r>   -28.9329     0.0000     1.0000 </r>
       <r>   -28.8103     0.0000     1.0000 </r>
       <r>   -28.6876     0.0000     1.0000 </r>
       <r>   -28.5650     0.0000     1.0000 </r>
       <r>   -28.4423     0.0000     1.0000 </r>
       <r>   -28.3197     0.0000     1.0000 </r>
       <r>   -28.1970     0.0000     1.0000 </r>
       <r>   -28.0743     0.0000     1.0000 </r>
       <r>   -27.9517     0.0000     1.0000 </r>
       <r>   -27.8290     0.0000     1.0000 </r>
       <r>   -27.7064     0.0000     1.0000 </r>
       <r>   -27.5837     0.0000     1.0000 </r>
       <r>   -27.4611     0.0000     1.0000 </r>
       <r>   -27.3384     0.0000     1.0000 </r>
       <r>   -27.2158     0.0000     1.0000 </r>
       <r>   -27.0931     0.0000     1.0000 </r>
       <r>   -26.9704     0.0000     1.0000 </r>
       <r>   -26.8478     0.0000     1.0000 </r>
       <r>   -26.7251     0.0000     1.0000 </r>
       <r>   -26.6025     0.0000     1.0000 </r>
       <r>   -26.4798     0.0000     1.0000 </r>
       <r>   -26.3572     0.0000     1.0000 </r>
       <r>   -26.2345     0.0000     1.0000 </r>
       <r>   -26.1119     0.0000     1.0000 </r>
       <r>   -25.9892     0.0000     1.0000 </r>
       <r>   -25.8665     0.0000     1.0000 </r>
       <r>   -25.7439     0.0000     1.0000 </r>
       <r>   -25.6212     0.0000     1.0000 </r>
       <r>   -25.4986     0.0000     1.0000 </r>
       <r>   -25.3759     0.0000     1.0000 </r>
       <r>   -25.2533     0.0000     1.0000 </r>
       <r>   -25.1306     0.0000     1.0000 </r>
       <r>   -25.0080     0.0000     1.0000 </r>
       <r>   -24.8853     0.0000     1.0000 </r>
       <r>   -24.7626     0.0000     1.0000 </r>
       <r>   -24.6400     0.0000     1.0000 </r>
       <r>   -24.5173     0.0000     1.0000 </r>
       <r>   -24.3947     0.0000     1.0000 </r>
       <r>   -24.2720     0.0000     1.0000 </r>
       <r>   -24.1494     0.0000     1.0000 </r>
       <r>   -24.0267     0.0000     1.0000 </r>
       <r>   -23.9040     0.0000     1.0000 </r>
       <r>   -23.7814     0.0000     1.0000 </r>
       <r>   -23.6587     0.0000     1.0000 </r>
       <r>   -23.5361     0.0000     1.0000 </r>
       <r>   -23.4134     0.0000     1.0000 </r>
       <r>   -23.2908     0.0000     1.0000 </r>
       <r>   -23.1681     0.0000     1.0000 </r>
       <r>   -23.0455     0.0000     1.0000 </r>
       <r>   -22.9228     0.0000     1.0000 </r>
       <r>   -22.8001     0.0000     1.0000 </r>
       <r>   -22.6775     0.0000     1.0000 </r>
       <r>   -22.5548     0.0000     1.0000 </r>
       <r>   -22.4322     0.0000     1.0000 </r>
       <r>   -22.3095     0.0000     1.0000 </r>
       <r>   -22.1869     0.0000     1.0000 </r>
       <r>   -22.0642     0.0000     1.0000 </r>
       <r>   -21.9416     0.0000     1.0000 </r>
       <r>   -21.8189     0.0000     1.0000 </r>
       <r>   -21.6962     0.0000     1.0000 </r>
       <r>   -21.5736     0.0000     1.0000 </r>
       <r>   -21.4509     0.0000     1.0000 </r>
       <r>   -21.3283     0.0000     1.0000 </r>
       <r>   -21.2056     0.0000     1.0000 </r>
       <r>   -21.0830     0.0000     1.0000 </r>
       <r>   -20.9603     0.0000     1.0000 </r>
       <r>   -20.8377     0.0000     1.0000 </r>
       <r>   -20.7150     0.0000     1.0000 </r>
       <r>   -20.5923     0.0000     1.0000 </r>
       <r>   -20.4697     0.0000     1.0000 </r>
       <r>   -20.3470     0.0000     1.0000 </r>
       <r>   -20.2244     0.0000     1.0000 </r>
       <r>   -20.1017     0.0000     1.0000 </r>
       <r>   -19.9791     0.0000     1.0000 </r>
       <r>   -19.8564     0.0000     1.0000 </r>
       <r>   -19.7338    -0.0000     1.0000 </r>
       <r>   -19.6111    -0.0000     1.0000 </r>
       <r>   -19.4884    -0.0000     1.0000 </r>
       <r>   -19.3658    -0.0000     1.0000 </r>
       <r>   -19.2431    -0.0000     1.0000 </r>
       <r>   -19.1205    -0.0010     0.9999 </r>
       <r>   -18.9978    -0.1409     0.9826 </r>
       <r>   -18.8752     1.2012     1.1299 </r>
       <r>   -18.7525     6.8394     1.9688 </r>
       <r>   -18.6298     0.3299     2.0093 </r>
       <r>   -18.5072    -0.0753     2.0000 </r>
       <r>   -18.3845    -0.0003     2.0000 </r>
       <r>   -18.2619    -0.0000     2.0000 </r>
       <r>   -18.1392    -0.0000     2.0000 </r>
       <r>   -18.0166     0.0000     2.0000 </r>
       <r>   -17.8939     0.0000     2.0000 </r>
       <r>   -17.7713     0.0000     2.0000 </r>
       <r>   -17.6486     0.0000     2.0000 </r>
       <r>   -17.5259     0.0000     2.0000 </r>
       <r>   -17.4033     0.0000     2.0000 </r>
       <r>   -17.2806     0.0000     2.0000 </r>
       <r>   -17.1580     0.0000     2.0000 </r>
       <r>   -17.0353     0.0000     2.0000 </r>
       <r>   -16.9127     0.0000     2.0000 </r>
       <r>   -16.7900     0.0000     2.0000 </r>
       <r>   -16.6674     0.0000     2.0000 </r>
       <r>   -16.5447     0.0000     2.0000 </r>
       <r>   -16.4220     0.0000     2.0000 </r>
       <r>   -16.2994     0.0000     2.0000 </r>
       <r>   -16.1767     0.0000     2.0000 </r>
       <r>   -16.0541     0.0000     2.0000 </r>
       <r>   -15.9314     0.0000     2.0000 </r>
       <r>   -15.8088     0.0000     2.0000 </r>
       <r>   -15.6861     0.0000     2.0000 </r>
       <r>   -15.5635     0.0000     2.0000 </r>
       <r>   -15.4408     0.0000     2.0000 </r>
       <r>   -15.3181     0.0000     2.0000 </r>
       <r>   -15.1955     0.0000     2.0000 </r>
       <r>   -15.0728     0.0000     2.0000 </r>
       <r>   -14.9502     0.0000     2.0000 </r>
       <r>   -14.8275     0.0000     2.0000 </r>
       <r>   -14.7049     0.0000     2.0000 </r>
       <r>   -14.5822     0.0000     2.0000 </r>
       <r>   -14.4596     0.0000     2.0000 </r>
       <r>   -14.3369     0.0000     2.0000 </r>
       <r>   -14.2142     0.0000     2.0000 </r>
       <r>   -14.0916     0.0000     2.0000 </r>
       <r>   -13.9689     0.0000     2.0000 </r>
       <r>   -13.8463     0.0000     2.0000 </r>
       <r>   -13.7236     0.0000     2.0000 </r>
       <r>   -13.6010     0.0000     2.0000 </r>
       <r>   -13.4783     0.0000     2.0000 </r>
       <r>   -13.3557    -0.0000     2.0000 </r>
       <r>   -13.2330    -0.0000     2.0000 </r>
       <r>   -13.1103    -0.0000     2.0000 </r>
       <r>   -12.9877    -0.0000     2.0000 </r>
       <r>   -12.8650    -0.0000     2.0000 </r>
       <r>   -12.7424    -0.0044     1.9995 </r>
       <r>   -12.6197    -0.2435     1.9696 </r>
       <r>   -12.4971     2.9178     2.3275 </r>
       <r>   -12.3744     5.7021     3.0269 </r>
       <r>   -12.2517    -0.1917     3.0034 </r>
       <r>   -12.1291    -0.0273     3.0000 </r>
       <r>   -12.0064    -0.0000     3.0000 </r>
       <r>   -11.8838    -0.0000     3.0000 </r>
       <r>   -11.7611    -0.0001     3.0000 </r>
       <r>   -11.6385    -0.0673     2.9917 </r>
       <r>   -11.5158    -0.2712     2.9585 </r>
       <r>   -11.3932    11.9810     4.4280 </r>
       <r>   -11.2705     5.1217     5.0562 </r>
       <r>   -11.1478    -0.4515     5.0008 </r>
       <r>   -11.0252    -0.0069     5.0000 </r>
       <r>   -10.9025    -0.0000     5.0000 </r>
       <r>   -10.7799    -0.0000     5.0000 </r>
       <r>   -10.6572     0.0000     5.0000 </r>
       <r>   -10.5346     0.0000     5.0000 </r>
       <r>   -10.4119     0.0000     5.0000 </r>
       <r>   -10.2893     0.0000     5.0000 </r>
       <r>   -10.1666     0.0000     5.0000 </r>
       <r>   -10.0439     0.0000     5.0000 </r>
       <r>    -9.9213     0.0000     5.0000 </r>
       <r>    -9.7986     0.0000     5.0000 </r>
       <r>    -9.6760     0.0000     5.0000 </r>
       <r>    -9.5533     0.0000     5.0000 </r>
       <r>    -9.4307     0.0000     5.0000 </r>
       <r>    -9.3080     0.0000     5.0000 </r>
       <r>    -9.1854     0.0000     5.0000 </r>
       <r>    -9.0627     0.0000     5.0000 </r>
       <r>    -8.9400     0.0000     5.0000 </r>
       <r>    -8.8174     0.0000     5.0000 </r>
       <r>    -8.6947     0.0000     5.0000 </r>
       <r>    -8.5721     0.0000     5.0000 </r>
       <r>    -8.4494     0.0000     5.0000 </r>
       <r>    -8.3268     0.0000     5.0000 </r>
       <r>    -8.2041     0.0000     5.0000 </r>
       <r>    -8.0815     0.0000     5.0000 </r>
       <r>    -7.9588     0.0000     5.0000 </r>
       <r>    -7.8361     0.0000     5.0000 </r>
       <r>    -7.7135     0.0000     5.0000 </r>
       <r>    -7.5908     0.0000     5.0000 </r>
       <r>    -7.4682     0.0000     5.0000 </r>
       <r>    -7.3455     0.0000     5.0000 </r>
       <r>    -7.2229     0.0000     5.0000 </r>
       <r>    -7.1002     0.0000     5.0000 </r>
       <r>    -6.9775     0.0000     5.0000 </r>
       <r>    -6.8549     0.0000     5.0000 </r>
       <r>    -6.7322     0.0000     5.0000 </r>
       <r>    -6.6096     0.0000     5.0000 </r>
       <r>    -6.4869     0.0000     5.0000 </r>
       <r>    -6.3643     0.0000     5.0000 </r>
       <r>    -6.2416     0.0000     5.0000 </r>
       <r>    -6.1190     0.0000     5.0000 </r>
       <r>    -5.9963     0.0000     5.0000 </r>
       <r>    -5.8736     0.0000     5.0000 </r>
       <r>    -5.7510     0.0000     5.0000 </r>
       <r>    -5.6283     0.0000     5.0000 </r>
       <r>    -5.5057    -0.0000     5.0000 </r>
       <r>    -5.3830    -0.0000     5.0000 </r>
       <r>    -5.2604    -0.0000     5.0000 </r>
       <r>    -5.1377    -0.0000     5.0000 </r>
       <r>    -5.0151    -0.0000     5.0000 </r>
       <r>    -4.8924    -0.0296     4.9964 </r>
       <r>    -4.7697    -0.5387     4.9303 </r>
       <r>    -4.6471     9.4891     6.0942 </r>
       <r>    -4.5244     7.9543     7.0698 </r>
       <r>    -4.4018    -0.5510     7.0022 </r>
       <r>    -4.2791    -0.0182     7.0000 </r>
       <r>    -4.1565    -0.0000     7.0000 </r>
       <r>    -4.0338    -0.0000     7.0000 </r>
       <r>    -3.9112     0.0000     7.0000 </r>
       <r>    -3.7885     0.0000     7.0000 </r>
       <r>    -3.6658     0.0000     7.0000 </r>
       <r>    -3.5432     0.0000     7.0000 </r>
       <r>    -3.4205     0.0000     7.0000 </r>
       <r>    -3.2979     0.0000     7.0000 </r>
       <r>    -3.1752     0.0000     7.0000 </r>
       <r>    -3.0526     0.0000     7.0000 </r>
       <r>    -2.9299     0.0000     7.0000 </r>
       <r>    -2.8073     0.0000     7.0000 </r>
       <r>    -2.6846     0.0000     7.0000 </r>
       <r>    -2.5619     0.0000     7.0000 </r>
       <r>    -2.4393     0.0000     7.0000 </r>
       <r>    -2.3166     0.0000     7.0000 </r>
       <r>    -2.1940     0.0000     7.0000 </r>
       <r>    -2.0713     0.0000     7.0000 </r>
       <r>    -1.9487     0.0000     7.0000 </r>
       <r>    -1.8260     0.0000     7.0000 </r>
       <r>    -1.7034     0.0000     7.0000 </r>
       <r>    -1.5807     0.0000     7.0000 </r>
       <r>    -1.4580     0.0000     7.0000 </r>
       <r>    -1.3354     0.0000     7.0000 </r>
       <r>    -1.2127     0.0000     7.0000 </r>
       <r>    -1.0901    -0.0000     7.0000 </r>
       <r>    -0.9674    -0.0000     7.0000 </r>
       <r>    -0.8448    -0.0000     7.0000 </r>
       <r>    -0.7221    -0.0000     7.0000 </r>
       <r>    -0.5994    -0.0000     7.0000 </r>
       <r>    -0.4768    -0.0002     7.0000 </r>
       <r>    -0.3541    -0.0219     6.9973 </r>
       <r>    -0.2315     0.1382     7.0142 </r>
       <r>    -0.1088     1.3935     7.1852 </r>
       <r>     0.0138     3.3240     7.5929 </r>
       <r>     0.1365     3.1579     7.9802 </r>
       <r>     0.2591     0.8418     8.0835 </r>
       <r>     0.3818     3.5860     8.5233 </r>
       <r>     0.5045     7.3839     9.4290 </r>
       <r>     0.6271     6.3878    10.2125 </r>
       <r>     0.7498     2.3549    10.5013 </r>
       <r>     0.8724     2.6851    10.8307 </r>
       <r>     0.9951     1.4771    11.0118 </r>
       <r>     1.1177    -0.0915    11.0006 </r>
       <r>     1.2404    -0.0050    11.0000 </r>
       <r>     1.3630    -0.0000    11.0000 </r>
       <r>     1.4857    -0.0000    11.0000 </r>
       <r>     1.6084    -0.0000    11.0000 </r>
       <r>     1.7310     0.0000    11.0000 </r>
       <r>     1.8537     0.0000    11.0000 </r>
       <r>     1.9763     0.0000    11.0000 </r>
       <r>     2.0990     0.0000    11.0000 </r>
       <r>     2.2216     0.0000    11.0000 </r>
       <r>     2.3443     0.0000    11.0000 </r>
       <r>     2.4669     0.0000    11.0000 </r>
       <r>     2.5896     0.0000    11.0000 </r>
      </set>
     </set>
    </array>
   </total>
  </dos>
 </calculation>
 <structure name="finalpos" >
  <crystal>
   <varray name="basis" >
    <v>      10.16000000       0.00000000       0.00000000 </v>
    <v>       0.00000000      11.76000000       0.00000000 </v>
    <v>       0.00000000       0.00000000      15.00000000 </v>
   </varray>
   <i name="volume">   1792.22400000 </i>
   <varray name="rec_basis" >
    <v>       0.09842520       0.00000000       0.00000000 </v>
    <v>       0.00000000       0.08503401       0.00000000 </v>
    <v>       0.00000000       0.00000000       0.06666667 </v>
   </varray>
  </crystal>
  <varray name="positions" >
   <v>       0.00000000       0.00000000       0.07944085 </v>
   <v>       0.00000000       0.00000000      -0.00271085 </v>
  </varray>
 </structure>
</modeling>
