Beta12Borophene !The name of the system 
           1
    10.160000    0.000000    0.000000
     0.000000   11.760000    0.000000
     0.000000    0.000000   15.000000
   O 
   2
Direct configuration=     1
   0.00000000  0.00000000  0.07673000
   0.00000000  0.00000000  0.00000000
Direct configuration=     2
   0.00000000  0.00000000  0.10294517
   0.00000000  0.00000000 -0.02621517
Direct configuration=     3
   0.00000000  0.00000000  0.09138692
   0.00000000  0.00000000 -0.01465692
Direct configuration=     4
   0.00000000  0.00000000  0.08401714
   0.00000000  0.00000000 -0.00728714
Direct configuration=     5
   0.00000000  0.00000000  0.08090272
   0.00000000  0.00000000 -0.00417272
Direct configuration=     6
   0.00000000  0.00000000  0.07911811
   0.00000000  0.00000000 -0.00238811
Direct configuration=     7
   0.00000000  0.00000000  0.07950633
   0.00000000  0.00000000 -0.00277633
Direct configuration=     8
   0.00000000  0.00000000  0.07944900
   0.00000000  0.00000000 -0.00271900
Direct configuration=     9
   0.00000000  0.00000000  0.07944085
   0.00000000  0.00000000 -0.00271085
