  41  41   0   0
  0.4371278E+02  0.1016000E-08  0.1176000E-08  0.1500000E-08  0.5000000E-15
  1.000000000000000E-004
  CAR 
 Beta12Borophene !The name of the system 
      2.72756793    -18.24941291  301     -3.13896509      1.00000000
    -18.249  0.0000E+00  0.0000E+00  0.0000E+00  0.0000E+00
    -18.179  0.0000E+00  0.0000E+00  0.0000E+00  0.0000E+00
    -18.110 -0.2846E-34 -0.2846E-34 -0.1990E-35 -0.1990E-35
    -18.040 -0.2690E-29 -0.2690E-29 -0.1881E-30 -0.1881E-30
    -17.970 -0.9486E-25 -0.9486E-25 -0.6633E-26 -0.6633E-26
    -17.900 -0.1248E-20 -0.1248E-20 -0.8726E-22 -0.8726E-22
    -17.830 -0.5941E-17 -0.5941E-17 -0.4155E-18 -0.4155E-18
    -17.760 -0.1075E-13 -0.1075E-13 -0.7520E-15 -0.7520E-15
    -17.690 -0.7215E-11 -0.7215E-11 -0.5052E-12 -0.5052E-12
    -17.620 -0.1795E-08 -0.1795E-08 -0.1260E-09 -0.1260E-09
    -17.550 -0.1654E-06 -0.1654E-06 -0.1169E-07 -0.1169E-07
    -17.480 -0.5616E-05 -0.5616E-05 -0.4044E-06 -0.4044E-06
    -17.410 -0.6738E-04 -0.6738E-04 -0.5116E-05 -0.5116E-05
    -17.340 -0.2039E-03 -0.2039E-03 -0.1937E-04 -0.1937E-04
    -17.270  0.7637E-03  0.7637E-03  0.3403E-04  0.3403E-04
    -17.201  0.4537E-02  0.4537E-02  0.3513E-03  0.3513E-03
    -17.131  0.6457E-02  0.6457E-02  0.8028E-03  0.8028E-03
    -17.061  0.3423E-02  0.3423E-02  0.1042E-02  0.1042E-02
    -16.991  0.3328E-02  0.3328E-02  0.1275E-02  0.1275E-02
    -16.921  0.5888E-02  0.5888E-02  0.1686E-02  0.1686E-02
    -16.851  0.6467E-02  0.6467E-02  0.2139E-02  0.2139E-02
    -16.781  0.5576E-02  0.5576E-02  0.2529E-02  0.2529E-02
    -16.711  0.4175E-02  0.4175E-02  0.2821E-02  0.2821E-02
    -16.641  0.4416E-02  0.4416E-02  0.3129E-02  0.3129E-02
    -16.571  0.3100E-02  0.3100E-02  0.3346E-02  0.3346E-02
    -16.501  0.2403E-02  0.2403E-02  0.3514E-02  0.3514E-02
    -16.431  0.3109E-02  0.3109E-02  0.3731E-02  0.3731E-02
    -16.361  0.3482E-02  0.3482E-02  0.3975E-02  0.3975E-02
    -16.292  0.4563E-02  0.4563E-02  0.4294E-02  0.4294E-02
    -16.222  0.4181E-02  0.4181E-02  0.4586E-02  0.4586E-02
    -16.152  0.1328E-02  0.1328E-02  0.4679E-02  0.4679E-02
    -16.082 -0.2591E-03 -0.2591E-03  0.4661E-02  0.4661E-02
    -16.012  0.3311E-04  0.3311E-04  0.4663E-02  0.4663E-02
    -15.942  0.2629E-02  0.2629E-02  0.4847E-02  0.4847E-02
    -15.872  0.4681E-02  0.4681E-02  0.5175E-02  0.5175E-02
    -15.802  0.3431E-02  0.3431E-02  0.5414E-02  0.5414E-02
    -15.732  0.4195E-02  0.4195E-02  0.5708E-02  0.5708E-02
    -15.662  0.3589E-02  0.3589E-02  0.5959E-02  0.5959E-02
    -15.592  0.8120E-03  0.8120E-03  0.6015E-02  0.6015E-02
    -15.522 -0.1574E-03 -0.1574E-03  0.6004E-02  0.6004E-02
    -15.452 -0.1154E-03 -0.1154E-03  0.5996E-02  0.5996E-02
    -15.383 -0.1848E-03 -0.1848E-03  0.5983E-02  0.5983E-02
    -15.313  0.6532E-03  0.6532E-03  0.6029E-02  0.6029E-02
    -15.243  0.3598E-02  0.3598E-02  0.6281E-02  0.6281E-02
    -15.173  0.4294E-02  0.4294E-02  0.6581E-02  0.6581E-02
    -15.103  0.2920E-02  0.2920E-02  0.6785E-02  0.6785E-02
    -15.033  0.4305E-02  0.4305E-02  0.7086E-02  0.7086E-02
    -14.963  0.3170E-02  0.3170E-02  0.7308E-02  0.7308E-02
    -14.893  0.5546E-03  0.5546E-03  0.7347E-02  0.7347E-02
    -14.823  0.3228E-03  0.3228E-03  0.7369E-02  0.7369E-02
    -14.753  0.1017E-02  0.1017E-02  0.7440E-02  0.7440E-02
    -14.683  0.2451E-02  0.2451E-02  0.7612E-02  0.7612E-02
    -14.613  0.3337E-02  0.3337E-02  0.7845E-02  0.7845E-02
    -14.543  0.4475E-02  0.4475E-02  0.8158E-02  0.8158E-02
    -14.474  0.5837E-02  0.5837E-02  0.8566E-02  0.8566E-02
    -14.404  0.3668E-02  0.3668E-02  0.8822E-02  0.8822E-02
    -14.334  0.1983E-02  0.1983E-02  0.8961E-02  0.8961E-02
    -14.264  0.6525E-03  0.6525E-03  0.9007E-02  0.9007E-02
    -14.194 -0.1139E-03 -0.1139E-03  0.8999E-02  0.8999E-02
    -14.124 -0.1399E-03 -0.1399E-03  0.8989E-02  0.8989E-02
    -14.054  0.8917E-03  0.8917E-03  0.9051E-02  0.9051E-02
    -13.984  0.3283E-02  0.3283E-02  0.9281E-02  0.9281E-02
    -13.914  0.4155E-02  0.4155E-02  0.9572E-02  0.9572E-02
    -13.844  0.2826E-02  0.2826E-02  0.9769E-02  0.9769E-02
    -13.774  0.1355E-02  0.1355E-02  0.9864E-02  0.9864E-02
    -13.704  0.5077E-03  0.5077E-03  0.9899E-02  0.9899E-02
    -13.634  0.2957E-02  0.2957E-02  0.1011E-01  0.1011E-01
    -13.565  0.4752E-02  0.4752E-02  0.1044E-01  0.1044E-01
    -13.495  0.3478E-02  0.3478E-02  0.1068E-01  0.1068E-01
    -13.425  0.3718E-02  0.3718E-02  0.1094E-01  0.1094E-01
    -13.355  0.4553E-02  0.4553E-02  0.1126E-01  0.1126E-01
    -13.285  0.6777E-02  0.6777E-02  0.1173E-01  0.1173E-01
    -13.215  0.7886E-02  0.7886E-02  0.1229E-01  0.1229E-01
    -13.145  0.6860E-02  0.6860E-02  0.1276E-01  0.1276E-01
    -13.075  0.6598E-02  0.6598E-02  0.1323E-01  0.1323E-01
    -13.005  0.4844E-02  0.4844E-02  0.1356E-01  0.1356E-01
    -12.935  0.4283E-02  0.4283E-02  0.1386E-01  0.1386E-01
    -12.865  0.6138E-02  0.6138E-02  0.1429E-01  0.1429E-01
    -12.795  0.4623E-02  0.4623E-02  0.1462E-01  0.1462E-01
    -12.725  0.2652E-02  0.2652E-02  0.1480E-01  0.1480E-01
    -12.656  0.3324E-02  0.3324E-02  0.1503E-01  0.1503E-01
    -12.586  0.3120E-02  0.3120E-02  0.1525E-01  0.1525E-01
    -12.516  0.1409E-02  0.1409E-02  0.1535E-01  0.1535E-01
    -12.446  0.4790E-02  0.4790E-02  0.1569E-01  0.1569E-01
    -12.376  0.7960E-02  0.7960E-02  0.1624E-01  0.1624E-01
    -12.306  0.4044E-02  0.4044E-02  0.1653E-01  0.1653E-01
    -12.236  0.1889E-02  0.1889E-02  0.1666E-01  0.1666E-01
    -12.166  0.5333E-02  0.5333E-02  0.1703E-01  0.1703E-01
    -12.096  0.8880E-02  0.8880E-02  0.1765E-01  0.1765E-01
    -12.026  0.9560E-02  0.9560E-02  0.1832E-01  0.1832E-01
    -11.956  0.5744E-02  0.5744E-02  0.1872E-01  0.1872E-01
    -11.886  0.1672E-02  0.1672E-02  0.1884E-01  0.1884E-01
    -11.816  0.3440E-02  0.3440E-02  0.1908E-01  0.1908E-01
    -11.747  0.4842E-02  0.4842E-02  0.1942E-01  0.1942E-01
    -11.677  0.2745E-02  0.2745E-02  0.1961E-01  0.1961E-01
    -11.607  0.8427E-03  0.8427E-03  0.1967E-01  0.1967E-01
    -11.537  0.4433E-04  0.4433E-04  0.1967E-01  0.1967E-01
    -11.467 -0.1216E-03 -0.1216E-03  0.1966E-01  0.1966E-01
    -11.397 -0.1703E-03 -0.1703E-03  0.1965E-01  0.1965E-01
    -11.327  0.6962E-03  0.6962E-03  0.1970E-01  0.1970E-01
    -11.257  0.3656E-02  0.3656E-02  0.1996E-01  0.1996E-01
    -11.187  0.5114E-02  0.5114E-02  0.2031E-01  0.2031E-01
    -11.117  0.3189E-02  0.3189E-02  0.2054E-01  0.2054E-01
    -11.047  0.2854E-02  0.2854E-02  0.2074E-01  0.2074E-01
    -10.977  0.3145E-02  0.3145E-02  0.2096E-01  0.2096E-01
    -10.907  0.4097E-02  0.4097E-02  0.2124E-01  0.2124E-01
    -10.838  0.4363E-02  0.4363E-02  0.2155E-01  0.2155E-01
    -10.768  0.2824E-02  0.2824E-02  0.2174E-01  0.2174E-01
    -10.698  0.1714E-02  0.1714E-02  0.2186E-01  0.2186E-01
    -10.628  0.4251E-03  0.4251E-03  0.2189E-01  0.2189E-01
    -10.558  0.4641E-04  0.4641E-04  0.2190E-01  0.2190E-01
    -10.488  0.7168E-03  0.7168E-03  0.2195E-01  0.2195E-01
    -10.418  0.6556E-03  0.6556E-03  0.2199E-01  0.2199E-01
    -10.348 -0.8270E-04 -0.8270E-04  0.2199E-01  0.2199E-01
    -10.278  0.5569E-03  0.5569E-03  0.2203E-01  0.2203E-01
    -10.208  0.3128E-02  0.3128E-02  0.2225E-01  0.2225E-01
    -10.138  0.3623E-02  0.3623E-02  0.2250E-01  0.2250E-01
    -10.068  0.2445E-02  0.2445E-02  0.2267E-01  0.2267E-01
     -9.998  0.2427E-02  0.2427E-02  0.2284E-01  0.2284E-01
     -9.929  0.3114E-02  0.3114E-02  0.2306E-01  0.2306E-01
     -9.859  0.3983E-02  0.3983E-02  0.2334E-01  0.2334E-01
     -9.789  0.4446E-02  0.4446E-02  0.2365E-01  0.2365E-01
     -9.719  0.4326E-02  0.4326E-02  0.2395E-01  0.2395E-01
     -9.649  0.2700E-02  0.2700E-02  0.2414E-01  0.2414E-01
     -9.579  0.2921E-02  0.2921E-02  0.2434E-01  0.2434E-01
     -9.509  0.4737E-02  0.4737E-02  0.2467E-01  0.2467E-01
     -9.439  0.6172E-02  0.6172E-02  0.2510E-01  0.2510E-01
     -9.369  0.4979E-02  0.4979E-02  0.2545E-01  0.2545E-01
     -9.299  0.2464E-02  0.2464E-02  0.2563E-01  0.2563E-01
     -9.229  0.4634E-02  0.4634E-02  0.2595E-01  0.2595E-01
     -9.159  0.7887E-02  0.7887E-02  0.2650E-01  0.2650E-01
     -9.089  0.5060E-02  0.5060E-02  0.2685E-01  0.2685E-01
     -9.020  0.1701E-02  0.1701E-02  0.2697E-01  0.2697E-01
     -8.950  0.3349E-02  0.3349E-02  0.2721E-01  0.2721E-01
     -8.880  0.3589E-02  0.3589E-02  0.2746E-01  0.2746E-01
     -8.810  0.2701E-02  0.2701E-02  0.2765E-01  0.2765E-01
     -8.740  0.7838E-02  0.7838E-02  0.2820E-01  0.2820E-01
     -8.670  0.1486E-01  0.1486E-01  0.2923E-01  0.2923E-01
     -8.600  0.1069E-01  0.1069E-01  0.2998E-01  0.2998E-01
     -8.530  0.5233E-02  0.5233E-02  0.3035E-01  0.3035E-01
     -8.460  0.5669E-02  0.5669E-02  0.3074E-01  0.3074E-01
     -8.390  0.6151E-02  0.6151E-02  0.3117E-01  0.3117E-01
     -8.320  0.6873E-02  0.6873E-02  0.3165E-01  0.3165E-01
     -8.250  0.6166E-02  0.6166E-02  0.3209E-01  0.3209E-01
     -8.180  0.7520E-02  0.7520E-02  0.3261E-01  0.3261E-01
     -8.111  0.6840E-02  0.6840E-02  0.3309E-01  0.3309E-01
     -8.041  0.5133E-02  0.5133E-02  0.3345E-01  0.3345E-01
     -7.971  0.5940E-02  0.5940E-02  0.3386E-01  0.3386E-01
     -7.901  0.8278E-02  0.8278E-02  0.3444E-01  0.3444E-01
     -7.831  0.5503E-02  0.5503E-02  0.3483E-01  0.3483E-01
     -7.761  0.1764E-02  0.1764E-02  0.3495E-01  0.3495E-01
     -7.691  0.2633E-02  0.2633E-02  0.3514E-01  0.3514E-01
     -7.621  0.7830E-02  0.7830E-02  0.3568E-01  0.3568E-01
     -7.551  0.8239E-02  0.8239E-02  0.3626E-01  0.3626E-01
     -7.481  0.4891E-02  0.4891E-02  0.3660E-01  0.3660E-01
     -7.411  0.4414E-02  0.4414E-02  0.3691E-01  0.3691E-01
     -7.341  0.7465E-02  0.7465E-02  0.3743E-01  0.3743E-01
     -7.271  0.8749E-02  0.8749E-02  0.3804E-01  0.3804E-01
     -7.202  0.8026E-02  0.8026E-02  0.3860E-01  0.3860E-01
     -7.132  0.4150E-02  0.4150E-02  0.3889E-01  0.3889E-01
     -7.062  0.2937E-02  0.2937E-02  0.3910E-01  0.3910E-01
     -6.992  0.7034E-02  0.7034E-02  0.3959E-01  0.3959E-01
     -6.922  0.5279E-02  0.5279E-02  0.3996E-01  0.3996E-01
     -6.852  0.2705E-02  0.2705E-02  0.4015E-01  0.4015E-01
     -6.782  0.6746E-02  0.6746E-02  0.4062E-01  0.4062E-01
     -6.712  0.8047E-02  0.8047E-02  0.4118E-01  0.4118E-01
     -6.642  0.4682E-02  0.4682E-02  0.4151E-01  0.4151E-01
     -6.572  0.3839E-02  0.3839E-02  0.4178E-01  0.4178E-01
     -6.502  0.5365E-02  0.5365E-02  0.4216E-01  0.4216E-01
     -6.432  0.6915E-02  0.6915E-02  0.4264E-01  0.4264E-01
     -6.362  0.4271E-02  0.4271E-02  0.4294E-01  0.4294E-01
     -6.293  0.1932E-02  0.1932E-02  0.4307E-01  0.4307E-01
     -6.223  0.3455E-02  0.3455E-02  0.4331E-01  0.4331E-01
     -6.153  0.6213E-02  0.6213E-02  0.4375E-01  0.4375E-01
     -6.083  0.9081E-02  0.9081E-02  0.4438E-01  0.4438E-01
     -6.013  0.7175E-02  0.7175E-02  0.4489E-01  0.4489E-01
     -5.943  0.3321E-02  0.3321E-02  0.4512E-01  0.4512E-01
     -5.873  0.4064E-02  0.4064E-02  0.4540E-01  0.4540E-01
     -5.803  0.7882E-02  0.7882E-02  0.4595E-01  0.4595E-01
     -5.733  0.8147E-02  0.8147E-02  0.4652E-01  0.4652E-01
     -5.663  0.6435E-02  0.6435E-02  0.4697E-01  0.4697E-01
     -5.593  0.5897E-02  0.5897E-02  0.4739E-01  0.4739E-01
     -5.523  0.5061E-02  0.5061E-02  0.4774E-01  0.4774E-01
     -5.453  0.6124E-02  0.6124E-02  0.4817E-01  0.4817E-01
     -5.384  0.7292E-02  0.7292E-02  0.4868E-01  0.4868E-01
     -5.314  0.7617E-02  0.7617E-02  0.4921E-01  0.4921E-01
     -5.244  0.8530E-02  0.8530E-02  0.4981E-01  0.4981E-01
     -5.174  0.7708E-02  0.7708E-02  0.5034E-01  0.5034E-01
     -5.104  0.5762E-02  0.5762E-02  0.5075E-01  0.5075E-01
     -5.034  0.6922E-02  0.6922E-02  0.5123E-01  0.5123E-01
     -4.964  0.8034E-02  0.8034E-02  0.5179E-01  0.5179E-01
     -4.894  0.6589E-02  0.6589E-02  0.5225E-01  0.5225E-01
     -4.824  0.7343E-02  0.7343E-02  0.5277E-01  0.5277E-01
     -4.754  0.5549E-02  0.5549E-02  0.5316E-01  0.5316E-01
     -4.684  0.3447E-02  0.3447E-02  0.5340E-01  0.5340E-01
     -4.614  0.5879E-02  0.5879E-02  0.5381E-01  0.5381E-01
     -4.544  0.7163E-02  0.7163E-02  0.5431E-01  0.5431E-01
     -4.475  0.5046E-02  0.5046E-02  0.5466E-01  0.5466E-01
     -4.405  0.2507E-02  0.2507E-02  0.5484E-01  0.5484E-01
     -4.335  0.4982E-02  0.4982E-02  0.5519E-01  0.5519E-01
     -4.265  0.6319E-02  0.6319E-02  0.5563E-01  0.5563E-01
     -4.195  0.5044E-02  0.5044E-02  0.5598E-01  0.5598E-01
     -4.125  0.6586E-02  0.6586E-02  0.5644E-01  0.5644E-01
     -4.055  0.6891E-02  0.6891E-02  0.5692E-01  0.5692E-01
     -3.985  0.3073E-02  0.3073E-02  0.5714E-01  0.5714E-01
     -3.915  0.4290E-02  0.4290E-02  0.5744E-01  0.5744E-01
     -3.845  0.8783E-02  0.8783E-02  0.5805E-01  0.5805E-01
     -3.775  0.8214E-02  0.8214E-02  0.5863E-01  0.5863E-01
     -3.705  0.6846E-02  0.6846E-02  0.5910E-01  0.5910E-01
     -3.635  0.5894E-02  0.5894E-02  0.5952E-01  0.5952E-01
     -3.566  0.6733E-02  0.6733E-02  0.5999E-01  0.5999E-01
     -3.496  0.5291E-02  0.5291E-02  0.6036E-01  0.6036E-01
     -3.426  0.2952E-02  0.2952E-02  0.6056E-01  0.6056E-01
     -3.356  0.3732E-02  0.3732E-02  0.6082E-01  0.6082E-01
     -3.286  0.5637E-02  0.5637E-02  0.6122E-01  0.6122E-01
     -3.216  0.6230E-02  0.6230E-02  0.6165E-01  0.6165E-01
     -3.146  0.4567E-02  0.4567E-02  0.6197E-01  0.6197E-01
     -3.076  0.3284E-02  0.3284E-02  0.6220E-01  0.6220E-01
     -3.006  0.2792E-02  0.2792E-02  0.6240E-01  0.6240E-01
     -2.936  0.5984E-02  0.5984E-02  0.6282E-01  0.6282E-01
     -2.866  0.6292E-02  0.6292E-02  0.6326E-01  0.6326E-01
     -2.796  0.1477E-02  0.1477E-02  0.6336E-01  0.6336E-01
     -2.726 -0.5410E-03 -0.5410E-03  0.6332E-01  0.6332E-01
     -2.657  0.4065E-04  0.4066E-04  0.6332E-01  0.6332E-01
     -2.587  0.4075E-02  0.4075E-02  0.6361E-01  0.6361E-01
     -2.517  0.6699E-02  0.6699E-02  0.6408E-01  0.6408E-01
     -2.447  0.2252E-02  0.2252E-02  0.6424E-01  0.6424E-01
     -2.377  0.9016E-04  0.9016E-04  0.6424E-01  0.6424E-01
     -2.307  0.2794E-02  0.2794E-02  0.6444E-01  0.6444E-01
     -2.237  0.3972E-02  0.3972E-02  0.6472E-01  0.6472E-01
     -2.167  0.2443E-02  0.2443E-02  0.6489E-01  0.6489E-01
     -2.097  0.2712E-02  0.2712E-02  0.6508E-01  0.6508E-01
     -2.027  0.4974E-02  0.4974E-02  0.6542E-01  0.6542E-01
     -1.957  0.4034E-02  0.4034E-02  0.6571E-01  0.6571E-01
     -1.887  0.1116E-02  0.1116E-02  0.6578E-01  0.6578E-01
     -1.817  0.1004E-04  0.1004E-04  0.6578E-01  0.6578E-01
     -1.748 -0.7572E-04 -0.7572E-04  0.6578E-01  0.6578E-01
     -1.678 -0.2274E-04 -0.2274E-04  0.6578E-01  0.6578E-01
     -1.608 -0.8637E-04 -0.8637E-04  0.6577E-01  0.6577E-01
     -1.538 -0.2171E-03 -0.2171E-03  0.6576E-01  0.6576E-01
     -1.468  0.1057E-02  0.1057E-02  0.6583E-01  0.6583E-01
     -1.398  0.5269E-02  0.5269E-02  0.6620E-01  0.6620E-01
     -1.328  0.6950E-02  0.6950E-02  0.6668E-01  0.6668E-01
     -1.258  0.3668E-02  0.3668E-02  0.6694E-01  0.6694E-01
     -1.188  0.9374E-03  0.9374E-03  0.6701E-01  0.6701E-01
     -1.118 -0.3335E-04 -0.3335E-04  0.6700E-01  0.6700E-01
     -1.048  0.3877E-03  0.3877E-03  0.6703E-01  0.6703E-01
     -0.978  0.1511E-02  0.1511E-02  0.6714E-01  0.6714E-01
     -0.908  0.3934E-02  0.3934E-02  0.6741E-01  0.6741E-01
     -0.839  0.5298E-02  0.5298E-02  0.6778E-01  0.6778E-01
     -0.769  0.4090E-02  0.4090E-02  0.6807E-01  0.6807E-01
     -0.699  0.4091E-02  0.4091E-02  0.6835E-01  0.6835E-01
     -0.629  0.5394E-02  0.5394E-02  0.6873E-01  0.6873E-01
     -0.559  0.3650E-02  0.3650E-02  0.6899E-01  0.6899E-01
     -0.489  0.2826E-02  0.2826E-02  0.6918E-01  0.6918E-01
     -0.419  0.2998E-02  0.2998E-02  0.6939E-01  0.6939E-01
     -0.349  0.1332E-02  0.1332E-02  0.6949E-01  0.6949E-01
     -0.279  0.1923E-02  0.1923E-02  0.6962E-01  0.6962E-01
     -0.209  0.1704E-02  0.1704E-02  0.6974E-01  0.6974E-01
     -0.139  0.3342E-03  0.3342E-03  0.6976E-01  0.6976E-01
     -0.069  0.3031E-02  0.3031E-02  0.6998E-01  0.6998E-01
      0.001  0.8501E-02  0.8501E-02  0.7057E-01  0.7057E-01
      0.070  0.7470E-02  0.7470E-02  0.7109E-01  0.7109E-01
      0.140  0.1914E-02  0.1914E-02  0.7123E-01  0.7123E-01
      0.210  0.9450E-05  0.9459E-05  0.7123E-01  0.7123E-01
      0.280  0.3261E-02  0.3261E-02  0.7146E-01  0.7146E-01
      0.350  0.5767E-02  0.5767E-02  0.7186E-01  0.7186E-01
      0.420  0.4737E-02  0.4737E-02  0.7219E-01  0.7219E-01
      0.490  0.5777E-02  0.5777E-02  0.7259E-01  0.7259E-01
      0.560  0.6372E-02  0.6372E-02  0.7304E-01  0.7304E-01
      0.630  0.3643E-02  0.3643E-02  0.7329E-01  0.7329E-01
      0.700  0.1016E-02  0.1016E-02  0.7337E-01  0.7337E-01
      0.770  0.3169E-02  0.3168E-02  0.7359E-01  0.7359E-01
      0.840  0.6216E-02  0.6216E-02  0.7402E-01  0.7402E-01
      0.910  0.5853E-02  0.5853E-02  0.7443E-01  0.7443E-01
      0.979  0.6730E-02  0.6730E-02  0.7490E-01  0.7490E-01
      1.049  0.9167E-02  0.9167E-02  0.7554E-01  0.7554E-01
      1.119  0.1005E-01  0.1005E-01  0.7624E-01  0.7624E-01
      1.189  0.1224E-01  0.1224E-01  0.7710E-01  0.7710E-01
      1.259  0.1437E-01  0.1437E-01  0.7811E-01  0.7811E-01
      1.329  0.1108E-01  0.1108E-01  0.7888E-01  0.7888E-01
      1.399  0.1115E-01  0.1115E-01  0.7966E-01  0.7966E-01
      1.469  0.1559E-01  0.1559E-01  0.8075E-01  0.8075E-01
      1.539  0.1368E-01  0.1368E-01  0.8171E-01  0.8171E-01
      1.609  0.9484E-02  0.9484E-02  0.8237E-01  0.8237E-01
      1.679  0.5913E-02  0.5913E-02  0.8278E-01  0.8278E-01
      1.749  0.2476E-02  0.2476E-02  0.8296E-01  0.8296E-01
      1.819  0.7416E-03  0.7418E-03  0.8301E-01  0.8301E-01
      1.888 -0.4752E-04 -0.4745E-04  0.8301E-01  0.8301E-01
      1.958 -0.6811E-04 -0.6812E-04  0.8300E-01  0.8300E-01
      2.028 -0.8092E-05 -0.8095E-05  0.8300E-01  0.8300E-01
      2.098 -0.2814E-06 -0.2816E-06  0.8300E-01  0.8300E-01
      2.168 -0.3313E-08 -0.3315E-08  0.8300E-01  0.8300E-01
      2.238 -0.1386E-10 -0.1387E-10  0.8300E-01  0.8300E-01
      2.308 -0.2106E-13 -0.2108E-13  0.8300E-01  0.8300E-01
      2.378 -0.1200E-16 -0.1200E-16  0.8300E-01  0.8300E-01
      2.448  0.0000E+00  0.0000E+00  0.8300E-01  0.8300E-01
      2.518  0.0000E+00  0.0000E+00  0.8300E-01  0.8300E-01
      2.588  0.0000E+00  0.0000E+00  0.8300E-01  0.8300E-01
      2.658  0.0000E+00  0.0000E+00  0.8300E-01  0.8300E-01
      2.728  0.0000E+00  0.0000E+00  0.8300E-01  0.8300E-01
