   41   41 1000    2
  0.4371278E+02  0.1016000E-08  0.1176000E-08  0.1500000E-08  0.5000000E-15
  1.000000000000000E-004
  CAR 
 Beta12Borophene !The name of the system 
  124    6   83
 
  0.0000000E+00  0.0000000E+00  0.2500000E+00  0.1111111E+00
   1      -17.249413    -17.249413
   2      -16.954825    -16.954825
   3      -16.537895    -16.537895
   4      -16.434034    -16.434034
   5      -16.245602    -16.245602
   6      -16.234426    -16.234426
   7      -14.810963    -14.810963
   8      -14.567677    -14.567677
   9      -14.347719    -14.347719
  10      -14.042647    -14.042647
  11      -13.923401    -13.923401
  12      -13.644387    -13.644387
  13      -13.473656    -13.473656
  14      -12.944680    -12.944680
  15      -12.424348    -12.424348
  16      -12.362833    -12.362833
  17      -12.337247    -12.337247
  18      -11.831393    -11.831393
  19      -11.666901    -11.666901
  20      -11.217241    -11.217241
  21      -11.082171    -11.082171
  22      -10.867092    -10.867092
  23      -10.831326    -10.831326
  24      -10.491238    -10.491238
  25       -9.969512     -9.969512
  26       -9.786728     -9.786728
  27       -8.869748     -8.869748
  28       -8.534788     -8.534788
  29       -8.279315     -8.279315
  30       -8.271711     -8.271711
  31       -8.207354     -8.207354
  32       -8.097514     -8.097514
  33       -8.068106     -8.068106
  34       -7.939214     -7.939214
  35       -7.898594     -7.898594
  36       -7.672576     -7.672577
  37       -7.498694     -7.498694
  38       -7.325054     -7.325054
  39       -7.093662     -7.093662
  40       -6.973641     -6.973641
  41       -6.710906     -6.710906
  42       -6.604052     -6.604051
  43       -6.568623     -6.568623
  44       -6.545068     -6.545068
  45       -6.368448     -6.368448
  46       -6.159867     -6.159867
  47       -5.933298     -5.933298
  48       -5.747041     -5.747041
  49       -5.659473     -5.659473
  50       -5.361115     -5.361115
  51       -5.142590     -5.142590
  52       -4.861619     -4.861619
  53       -4.824415     -4.824415
  54       -4.721132     -4.721132
  55       -4.494146     -4.494146
  56       -4.295145     -4.295145
  57       -3.875651     -3.875651
  58       -3.758043     -3.758043
  59       -3.695730     -3.695730
  60       -3.442410     -3.442411
  61       -3.203488     -3.203488
  62       -3.093188     -3.093188
  63       -3.085056     -3.085056
  64       -2.908931     -2.908931
  65       -2.249406     -2.249406
  66       -1.943092     -1.943092
  67       -1.342585     -1.342585
  68       -1.040881     -1.040881
  69       -0.706685     -0.706685
  70       -0.245053     -0.245055
  71       -0.043651     -0.043651
  72        0.433467      0.433467
  73        0.510599      0.510599
  74        0.596889      0.596889
  75        0.939962      0.939966
  76        1.003047      1.003047
  77        1.018952      1.018953
  78        1.051181      1.051181
  79        1.246633      1.246635
  80        1.306043      1.306043
  81        1.327674      1.327678
  82        1.423128      1.423128
  83        1.435433      1.435433
 
  0.3333333E+00  0.0000000E+00  0.2500000E+00  0.1111111E+00
   1      -17.202775    -17.202775
   2      -17.024168    -17.024168
   3      -16.487646    -16.487646
   4      -16.389633    -16.389633
   5      -16.311893    -16.311893
   6      -16.289598    -16.289598
   7      -14.654026    -14.654026
   8      -14.521496    -14.521496
   9      -14.408289    -14.408290
  10      -13.994223    -13.994223
  11      -13.947449    -13.947449
  12      -13.536119    -13.536119
  13      -13.289594    -13.289594
  14      -13.262997    -13.262997
  15      -12.816745    -12.816745
  16      -12.731260    -12.731260
  17      -12.174226    -12.174226
  18      -11.838540    -11.838540
  19      -11.292540    -11.292540
  20      -11.087767    -11.087767
  21      -10.997774    -10.997774
  22      -10.927555    -10.927555
  23      -10.883865    -10.883865
  24      -10.019335    -10.019335
  25       -9.539241     -9.539241
  26       -9.469027     -9.469027
  27       -9.274266     -9.274266
  28       -8.878034     -8.878034
  29       -8.653320     -8.653320
  30       -8.651898     -8.651898
  31       -8.391046     -8.391047
  32       -8.365244     -8.365244
  33       -8.194770     -8.194770
  34       -8.092058     -8.092058
  35       -7.955458     -7.955458
  36       -7.482932     -7.482933
  37       -7.380526     -7.380526
  38       -7.225068     -7.225068
  39       -7.032313     -7.032313
  40       -6.843353     -6.843353
  41       -6.777766     -6.777766
  42       -6.703220     -6.703220
  43       -6.607554     -6.607554
  44       -6.422074     -6.422074
  45       -6.262803     -6.262803
  46       -6.073809     -6.073810
  47       -5.853477     -5.853477
  48       -5.467577     -5.467577
  49       -5.251801     -5.251801
  50       -5.209458     -5.209458
  51       -4.927157     -4.927157
  52       -4.857667     -4.857667
  53       -4.622807     -4.622808
  54       -4.576065     -4.576065
  55       -4.267346     -4.267346
  56       -4.118883     -4.118884
  57       -4.103692     -4.103692
  58       -3.927231     -3.927231
  59       -3.860385     -3.860385
  60       -3.591058     -3.591058
  61       -3.575122     -3.575122
  62       -3.443819     -3.443819
  63       -3.327284     -3.327285
  64       -2.959586     -2.959586
  65       -2.958462     -2.958462
  66       -2.169166     -2.169166
  67       -0.915779     -0.915779
  68       -0.752224     -0.752224
  69       -0.024229     -0.024231
  70        0.015166      0.015166
  71        0.067929      0.067929
  72        0.375312      0.375312
  73        0.743743      0.743742
  74        0.843281      0.843281
  75        0.961766      0.961767
  76        1.118363      1.118364
  77        1.148079      1.148083
  78        1.203601      1.203603
  79        1.236317      1.236317
  80        1.388844      1.388844
  81        1.430860      1.430860
  82        1.470142      1.470143
  83        1.530284      1.530287
 
 -0.3333333E+00  0.0000000E+00  0.2500000E+00  0.1111111E+00
   1      -17.202775    -17.202775
   2      -17.024168    -17.024168
   3      -16.487646    -16.487646
   4      -16.389633    -16.389633
   5      -16.311893    -16.311893
   6      -16.289598    -16.289598
   7      -14.654026    -14.654026
   8      -14.521496    -14.521496
   9      -14.408289    -14.408289
  10      -13.994223    -13.994223
  11      -13.947449    -13.947449
  12      -13.536119    -13.536119
  13      -13.289594    -13.289594
  14      -13.262997    -13.262997
  15      -12.816745    -12.816745
  16      -12.731260    -12.731260
  17      -12.174226    -12.174226
  18      -11.838540    -11.838540
  19      -11.292540    -11.292540
  20      -11.087767    -11.087767
  21      -10.997773    -10.997773
  22      -10.927555    -10.927555
  23      -10.883865    -10.883865
  24      -10.019335    -10.019335
  25       -9.539241     -9.539241
  26       -9.469027     -9.469027
  27       -9.274266     -9.274266
  28       -8.878034     -8.878034
  29       -8.653320     -8.653320
  30       -8.651898     -8.651898
  31       -8.391046     -8.391047
  32       -8.365244     -8.365244
  33       -8.194770     -8.194770
  34       -8.092058     -8.092058
  35       -7.955458     -7.955458
  36       -7.482932     -7.482933
  37       -7.380526     -7.380526
  38       -7.225068     -7.225068
  39       -7.032313     -7.032313
  40       -6.843353     -6.843353
  41       -6.777766     -6.777766
  42       -6.703220     -6.703220
  43       -6.607554     -6.607554
  44       -6.422074     -6.422074
  45       -6.262803     -6.262803
  46       -6.073809     -6.073810
  47       -5.853477     -5.853477
  48       -5.467577     -5.467577
  49       -5.251801     -5.251801
  50       -5.209458     -5.209458
  51       -4.927157     -4.927157
  52       -4.857667     -4.857667
  53       -4.622807     -4.622808
  54       -4.576065     -4.576065
  55       -4.267346     -4.267346
  56       -4.118883     -4.118884
  57       -4.103692     -4.103692
  58       -3.927231     -3.927231
  59       -3.860385     -3.860385
  60       -3.591058     -3.591058
  61       -3.575122     -3.575122
  62       -3.443819     -3.443819
  63       -3.327284     -3.327285
  64       -2.959586     -2.959586
  65       -2.958462     -2.958462
  66       -2.169166     -2.169166
  67       -0.915779     -0.915779
  68       -0.752224     -0.752224
  69       -0.024227     -0.024228
  70        0.015165      0.015166
  71        0.067927      0.067927
  72        0.375311      0.375311
  73        0.743737      0.743736
  74        0.843291      0.843291
  75        0.961768      0.961769
  76        1.118439      1.118440
  77        1.147799      1.147803
  78        1.203600      1.203603
  79        1.236552      1.236552
  80        1.388837      1.388837
  81        1.430810      1.430810
  82        1.470142      1.470142
  83        1.530359      1.530362
 
  0.0000000E+00  0.3333333E+00  0.2500000E+00  0.2222222E+00
   1      -17.192060    -17.192060
   2      -16.880941    -16.880941
   3      -16.855925    -16.855925
   4      -16.626033    -16.626033
   5      -15.945430    -15.945430
   6      -15.696082    -15.696082
   7      -15.270354    -15.270354
   8      -15.007119    -15.007119
   9      -14.689085    -14.689085
  10      -13.834435    -13.834435
  11      -13.328186    -13.328186
  12      -13.136682    -13.136682
  13      -13.099799    -13.099799
  14      -12.905318    -12.905318
  15      -12.648078    -12.648078
  16      -12.621350    -12.621350
  17      -12.224027    -12.224027
  18      -12.086430    -12.086430
  19      -12.027829    -12.027829
  20      -11.792107    -11.792107
  21      -11.747978    -11.747978
  22      -10.744504    -10.744504
  23      -10.116949    -10.116949
  24       -9.658343     -9.658343
  25       -9.570565     -9.570565
  26       -9.470827     -9.470827
  27       -9.163441     -9.163441
  28       -8.743884     -8.743884
  29       -8.715143     -8.715143
  30       -8.609586     -8.609586
  31       -8.487577     -8.487577
  32       -8.143456     -8.143456
  33       -8.022596     -8.022596
  34       -7.887976     -7.887976
  35       -7.803385     -7.803386
  36       -7.606869     -7.606869
  37       -7.530134     -7.530134
  38       -7.203040     -7.203040
  39       -7.006107     -7.006107
  40       -7.004417     -7.004417
  41       -6.988996     -6.988996
  42       -6.809491     -6.809492
  43       -6.457652     -6.457652
  44       -6.236194     -6.236195
  45       -6.048322     -6.048322
  46       -5.983647     -5.983647
  47       -5.810793     -5.810793
  48       -5.768150     -5.768150
  49       -5.618807     -5.618807
  50       -5.414728     -5.414729
  51       -5.386890     -5.386890
  52       -4.980763     -4.980763
  53       -4.884701     -4.884701
  54       -4.815978     -4.815978
  55       -4.778504     -4.778504
  56       -4.337300     -4.337301
  57       -3.918465     -3.918465
  58       -3.810750     -3.810750
  59       -3.744640     -3.744640
  60       -3.354067     -3.354067
  61       -3.214874     -3.214874
  62       -3.123381     -3.123381
  63       -2.585733     -2.585734
  64       -2.560235     -2.560235
  65       -2.065782     -2.065782
  66       -1.441586     -1.441586
  67       -1.381563     -1.381563
  68       -1.271924     -1.271924
  69       -0.932077     -0.932077
  70       -0.608188     -0.608188
  71       -0.300129     -0.300129
  72       -0.070279     -0.070280
  73        0.306204      0.306203
  74        0.547069      0.547069
  75        0.562050      0.562050
  76        0.881573      0.881575
  77        0.969992      0.969992
  78        1.022184      1.022187
  79        1.269078      1.269078
  80        1.293273      1.293279
  81        1.390689      1.390690
  82        1.424044      1.424046
  83        1.727556      1.727568
 
  0.3333333E+00  0.3333333E+00  0.2500000E+00  0.2222222E+00
   1      -17.146903    -17.146903
   2      -16.951639    -16.951639
   3      -16.804819    -16.804819
   4      -16.687916    -16.687916
   5      -15.896363    -15.896363
   6      -15.758046    -15.758046
   7      -15.216661    -15.216661
   8      -15.069264    -15.069264
   9      -14.513548    -14.513548
  10      -13.617745    -13.617745
  11      -13.417175    -13.417175
  12      -13.263673    -13.263673
  13      -13.161570    -13.161570
  14      -13.036628    -13.036628
  15      -12.888391    -12.888391
  16      -12.449197    -12.449197
  17      -12.404574    -12.404574
  18      -12.149541    -12.149541
  19      -12.077892    -12.077892
  20      -12.005588    -12.005588
  21      -11.222554    -11.222554
  22      -10.215908    -10.215908
  23       -9.888963     -9.888963
  24       -9.767284     -9.767284
  25       -9.403724     -9.403724
  26       -9.217570     -9.217570
  27       -9.152450     -9.152450
  28       -8.973946     -8.973946
  29       -8.744283     -8.744283
  30       -8.696014     -8.696014
  31       -8.677779     -8.677779
  32       -8.500587     -8.500587
  33       -8.356072     -8.356073
  34       -8.215231     -8.215231
  35       -7.934086     -7.934087
  36       -7.653534     -7.653534
  37       -7.608409     -7.608409
  38       -7.373053     -7.373053
  39       -7.312115     -7.312115
  40       -7.228593     -7.228593
  41       -6.761597     -6.761597
  42       -6.478321     -6.478321
  43       -6.147305     -6.147305
  44       -6.095291     -6.095291
  45       -5.840271     -5.840271
  46       -5.719412     -5.719412
  47       -5.597546     -5.597546
  48       -5.478274     -5.478274
  49       -5.326679     -5.326679
  50       -5.262363     -5.262363
  51       -5.156354     -5.156354
  52       -5.040397     -5.040397
  53       -5.021949     -5.021949
  54       -4.637204     -4.637204
  55       -4.517942     -4.517942
  56       -4.346230     -4.346230
  57       -4.189309     -4.189309
  58       -4.078006     -4.078006
  59       -3.853667     -3.853667
  60       -3.706532     -3.706533
  61       -3.572152     -3.572152
  62       -3.265619     -3.265619
  63       -2.913250     -2.913250
  64       -2.553128     -2.553128
  65       -2.304166     -2.304166
  66       -2.031392     -2.031392
  67       -1.378589     -1.378589
  68       -0.842658     -0.842658
  69       -0.658270     -0.658270
  70       -0.474958     -0.474958
  71       -0.002737     -0.002737
  72        0.291368      0.291367
  73        0.466843      0.466843
  74        0.804775      0.804776
  75        1.063678      1.063679
  76        1.142277      1.142279
  77        1.206419      1.206421
  78        1.252273      1.252273
  79        1.401837      1.401837
  80        1.492075      1.492076
  81        1.505220      1.505222
  82        1.594323      1.594325
  83        1.623743      1.623748
 
 -0.3333333E+00  0.3333333E+00  0.2500000E+00  0.2222222E+00
   1      -17.146903    -17.146903
   2      -16.951639    -16.951639
   3      -16.804819    -16.804819
   4      -16.687916    -16.687916
   5      -15.896363    -15.896363
   6      -15.758046    -15.758046
   7      -15.216661    -15.216661
   8      -15.069264    -15.069264
   9      -14.513548    -14.513548
  10      -13.617745    -13.617745
  11      -13.417175    -13.417175
  12      -13.263673    -13.263673
  13      -13.161570    -13.161570
  14      -13.036628    -13.036628
  15      -12.888391    -12.888391
  16      -12.449197    -12.449197
  17      -12.404574    -12.404574
  18      -12.149541    -12.149541
  19      -12.077892    -12.077892
  20      -12.005588    -12.005588
  21      -11.222554    -11.222554
  22      -10.215908    -10.215908
  23       -9.888963     -9.888963
  24       -9.767284     -9.767284
  25       -9.403724     -9.403724
  26       -9.217570     -9.217570
  27       -9.152449     -9.152449
  28       -8.973946     -8.973946
  29       -8.744283     -8.744283
  30       -8.696014     -8.696014
  31       -8.677779     -8.677779
  32       -8.500587     -8.500587
  33       -8.356072     -8.356073
  34       -8.215231     -8.215231
  35       -7.934086     -7.934087
  36       -7.653534     -7.653534
  37       -7.608409     -7.608409
  38       -7.373053     -7.373053
  39       -7.312115     -7.312115
  40       -7.228593     -7.228593
  41       -6.761597     -6.761597
  42       -6.478321     -6.478321
  43       -6.147305     -6.147305
  44       -6.095291     -6.095291
  45       -5.840271     -5.840271
  46       -5.719412     -5.719412
  47       -5.597546     -5.597546
  48       -5.478274     -5.478274
  49       -5.326679     -5.326679
  50       -5.262363     -5.262363
  51       -5.156354     -5.156354
  52       -5.040397     -5.040397
  53       -5.021949     -5.021949
  54       -4.637204     -4.637204
  55       -4.517942     -4.517942
  56       -4.346230     -4.346230
  57       -4.189309     -4.189309
  58       -4.078006     -4.078006
  59       -3.853667     -3.853667
  60       -3.706532     -3.706533
  61       -3.572152     -3.572152
  62       -3.265619     -3.265619
  63       -2.913250     -2.913250
  64       -2.553128     -2.553128
  65       -2.304165     -2.304166
  66       -2.031392     -2.031392
  67       -1.378589     -1.378589
  68       -0.842658     -0.842658
  69       -0.658270     -0.658270
  70       -0.474958     -0.474958
  71       -0.002738     -0.002738
  72        0.291368      0.291368
  73        0.466844      0.466844
  74        0.804778      0.804779
  75        1.063659      1.063660
  76        1.142267      1.142268
  77        1.206425      1.206427
  78        1.252298      1.252298
  79        1.401858      1.401858
  80        1.492116      1.492117
  81        1.505130      1.505132
  82        1.594303      1.594304
  83        1.623765      1.623770
