 vasp.5.3.3 18Dez12 (build Aug 26 2015 16:06:49) complex                        
  
 executed on             LinuxIFC date 2020.04.21  16:34:27
 running on    4 total cores
 distrk:  each k-point on    4 cores,    1 groups
 distr:  one band on NCORES_PER_BAND=   4 cores,    1 groups


--------------------------------------------------------------------------------------------------------


 INCAR:
 POTCAR:    PAW_PBE B 06Sep2000                   
 POTCAR:    PAW_PBE Si 05Jan2001                  
 POTCAR:    PAW_PBE B 06Sep2000                   
   SHA256 =  a32ced30f5ae56fd4d10b4325ff17eb3e4e38ee0f4288bc219fb012fddfa6e97 B/
   COPYR  = (c) Copyright 06Sep2000 Georg Kresse                                
   COPYR  = This file is part of the software VASP. Any use, copying, and all ot
   COPYR  = If you do not have a valid VASP license, you may not use, copy or di
   VRHFIN =B: s2p1                                                              
   LEXCH  = PE                                                                  
   EATOM  =    71.1703 eV,    5.2309 Ry                                         
                                                                                
   TITEL  = PAW_PBE B 06Sep2000                                                 
   LULTRA =        F    use ultrasoft PP ?                                      
   IUNSCR =        1    unscreen: 0-lin 1-nonlin 2-no                           
   RPACOR =    1.200    partial core radius                                     
   POMASS =   10.811; ZVAL   =    3.000    mass and valenz                      
   RCORE  =    1.700    outmost cutoff radius                                   
   RWIGS  =    1.710; RWIGS  =    0.905    wigner-seitz radius (au A)           
   ENMAX  =  318.614; ENMIN  =  238.960 eV                                      
   ICORE  =        2    local potential                                         
   LCOR   =        T    correct aug charges                                     
   LPAW   =        T    paw PP                                                  
   EAUG   =  535.514                                                            
   DEXC   =    0.000                                                            
   RMAX   =    1.732    core radius for proj-oper                               
   RAUG   =    1.300    factor for augmentation sphere                          
   RDEP   =    1.757    radius for radial grids                                 
   RDEPT  =    1.436    core radius for aug-charge                              
                                                                                
   Atomic configuration                                                         
    4 entries                                                                   
     n  l   j            E        occ.                                          
     1  0  0.50      -180.5896   2.0000                                         
     2  0  0.50        -9.4431   2.0000                                         
     2  1  0.50        -3.6068   1.0000                                         
     3  2  1.50        -4.0817   0.0000                                         
   Description                                                                  
     l       E           TYP  RCUT    TYP  RCUT                                 
     0     -9.4430752     23  1.500                                             
     0      0.8675899     23  1.500                                             
     1     -3.6067955     23  1.700                                             
     1      6.1086146     23  1.700                                             
     2     -4.0817478      7  1.700                                             
  local pseudopotential read in
  partial core-charges read in
  partial kinetic energy density read in
  atomic valenz-charges read in
  non local Contribution for L=           0  read in
    real space projection operators read in
  non local Contribution for L=           0  read in
    real space projection operators read in
  non local Contribution for L=           1  read in
    real space projection operators read in
  non local Contribution for L=           1  read in
    real space projection operators read in
    PAW grid and wavefunctions read in
 
   number of l-projection  operators is LMAX  =           4
   number of lm-projection operators is LMMAX =           8
 
 POTCAR:    PAW_PBE Si 05Jan2001                  
   SHA256 =  79d9987ad8750f624c4d6acb2a16d13abf6a777132adc04dc6c8399be72b42bb Si
   COPYR  = (c) Copyright 05Jan2001 Georg Kresse                                
   COPYR  = This file is part of the software VASP. Any use, copying, and all ot
   COPYR  = If you do not have a valid VASP license, you may not use, copy or di
   VRHFIN =Si: s2p2                                                             
   LEXCH  = PE                                                                  
   EATOM  =   103.0669 eV,    7.5752 Ry                                         
                                                                                
   TITEL  = PAW_PBE Si 05Jan2001                                                
   LULTRA =        F    use ultrasoft PP ?                                      
   IUNSCR =        1    unscreen: 0-lin 1-nonlin 2-no                           
   RPACOR =    1.500    partial core radius                                     
   POMASS =   28.085; ZVAL   =    4.000    mass and valenz                      
   RCORE  =    1.900    outmost cutoff radius                                   
   RWIGS  =    2.480; RWIGS  =    1.312    wigner-seitz radius (au A)           
   ENMAX  =  245.345; ENMIN  =  184.009 eV                                      
   ICORE  =        2    local potential                                         
   LCOR   =        T    correct aug charges                                     
   LPAW   =        T    paw PP                                                  
   EAUG   =  322.069                                                            
   DEXC   =    0.000                                                            
   RMAX   =    1.950    core radius for proj-oper                               
   RAUG   =    1.300    factor for augmentation sphere                          
   RDEP   =    1.993    radius for radial grids                                 
   RDEPT  =    1.837    core radius for aug-charge                              
                                                                                
   Atomic configuration                                                         
    6 entries                                                                   
     n  l   j            E        occ.                                          
     1  0  0.50     -1785.8828   2.0000                                         
     2  0  0.50      -139.4969   2.0000                                         
     2  1  1.50       -95.5546   6.0000                                         
     3  0  0.50       -10.8127   2.0000                                         
     3  1  0.50        -4.0811   2.0000                                         
     3  2  1.50        -4.0817   0.0000                                         
   Description                                                                  
     l       E           TYP  RCUT    TYP  RCUT                                 
     0    -10.8127223     23  1.900                                             
     0     -7.6451159     23  1.900                                             
     1     -4.0811372     23  1.900                                             
     1      2.4879257     23  1.900                                             
     2     -4.0817478      7  1.900                                             
  local pseudopotential read in
  partial core-charges read in
  partial kinetic energy density read in
  atomic valenz-charges read in
  non local Contribution for L=           0  read in
    real space projection operators read in
  non local Contribution for L=           0  read in
    real space projection operators read in
  non local Contribution for L=           1  read in
    real space projection operators read in
  non local Contribution for L=           1  read in
    real space projection operators read in
    PAW grid and wavefunctions read in
 
   number of l-projection  operators is LMAX  =           4
   number of lm-projection operators is LMMAX =           8
 
 Optimization of the real space projectors (new method)

 maximal supplied QI-value         = 22.11
 optimisation between [QCUT,QGAM] = [ 11.28, 22.77] = [ 35.61,145.23] Ry 
 Optimized for a Real-space Cutoff    1.16 Angstroem

   l    n(q)    QCUT    max X(q) W(low)/X(q) W(high)/X(q)  e(spline) 
   0      8    11.276    53.033    0.48E-03    0.56E-03    0.11E-06
   0      8    11.276    34.740    0.48E-03    0.55E-03    0.11E-06
   1      7    11.276    30.949    0.26E-03    0.19E-04    0.19E-06
   1      7    11.276    19.518    0.24E-03    0.14E-04    0.18E-06
 Optimization of the real space projectors (new method)

 maximal supplied QI-value         = 19.84
 optimisation between [QCUT,QGAM] = [ 11.31, 22.82] = [ 35.82,145.81] Ry 
 Optimized for a Real-space Cutoff    1.16 Angstroem

   l    n(q)    QCUT    max X(q) W(low)/X(q) W(high)/X(q)  e(spline) 
   0      8    11.310   159.560    0.27E-03    0.30E-03    0.39E-07
   0      8    11.310   115.863    0.27E-03    0.30E-03    0.38E-07
   1      7    11.310    88.339    0.28E-03    0.28E-03    0.77E-07
   1      7    11.310    48.592    0.27E-03    0.27E-03    0.74E-07
  PAW_PBE B 06Sep2000                   :
 energy of atom  1       EATOM=  -71.1703
 kinetic energy error for atom=    0.0012 (will be added to EATOM!!)
  PAW_PBE Si 05Jan2001                  :
 energy of atom  2       EATOM= -103.0669
 kinetic energy error for atom=    0.0006 (will be added to EATOM!!)
 
 
 POSCAR: AdsorptionEnergy                        
  positions in direct lattice
  No initial velocities read in
 exchange correlation table for  LEXCH =        8
   RHO(1)=    0.500       N(1)  =     2000
   RHO(2)=  100.500       N(2)  =     4000
 


--------------------------------------------------------------------------------------------------------


 ion  position               nearest neighbor table
   1  0.998  0.000  0.000-  23 1.65  19 1.69   4 1.69   2 1.71
   2  0.167  0.000  0.000-   3 1.71   1 1.71   5 1.71  20 1.71  19 1.71   4 1.71
   3  0.335  0.000  0.000-  21 1.65  20 1.69   5 1.69   2 1.71  41 2.62
   4  0.080  0.125  0.000-   1 1.69   6 1.69   2 1.71   7 1.71   5 1.76
   5  0.253  0.125  0.000-   3 1.69   8 1.69   7 1.71   2 1.71   4 1.76  41 2.60
   6  0.998  0.250  0.000-  28 1.65   9 1.69   4 1.69   7 1.71
   7  0.167  0.250  0.000-   8 1.71   6 1.71   5 1.71  10 1.71   9 1.71   4 1.71
   8  0.335  0.250  0.000-  26 1.65  10 1.69   5 1.69   7 1.71  41 2.62
   9  0.080  0.375  0.000-   6 1.69  11 1.69   7 1.71  12 1.71  10 1.76
  10  0.253  0.375  0.000-   8 1.69  13 1.69  12 1.71   7 1.71   9 1.76
  11  0.998  0.500  0.000-  33 1.65  14 1.69   9 1.69  12 1.71
  12  0.167  0.500  0.000-  13 1.71  11 1.71  10 1.71  15 1.71  14 1.71   9 1.71
  13  0.335  0.500  0.000-  31 1.65  15 1.69  10 1.69  12 1.71
  14  0.080  0.625  0.000-  11 1.69  16 1.69  12 1.71  17 1.71  15 1.76
  15  0.253  0.625  0.000-  13 1.69  18 1.69  17 1.71  12 1.71  14 1.76
  16  0.998  0.750  0.000-  38 1.65  19 1.69  14 1.69  17 1.71
  17  0.167  0.750  0.000-  18 1.71  16 1.71  15 1.71  20 1.71  19 1.71  14 1.71
  18  0.335  0.750  0.000-  36 1.65  20 1.69  15 1.69  17 1.71
  19  0.080  0.875  0.000-   1 1.69  16 1.69   2 1.71  17 1.71  20 1.76
  20  0.253  0.875  0.000-   3 1.69  18 1.69  17 1.71   2 1.71  19 1.76
  21  0.498  0.000  0.000-   3 1.65  24 1.69  39 1.69  22 1.71  41 2.62
  22  0.667  0.000  0.000-  23 1.71  21 1.71  25 1.71  40 1.71  39 1.71  24 1.71
  23  0.835  0.000  0.000-   1 1.65  25 1.69  40 1.69  22 1.71
  24  0.580  0.125  0.000-  21 1.69  26 1.69  22 1.71  27 1.71  25 1.76  41 2.60
  25  0.753  0.125  0.000-  23 1.69  28 1.69  27 1.71  22 1.71  24 1.76
  26  0.498  0.250  0.000-   8 1.65  24 1.69  29 1.69  27 1.71  41 2.62
  27  0.667  0.250  0.000-  28 1.71  26 1.71  25 1.71  30 1.71  29 1.71  24 1.71
  28  0.835  0.250  0.000-   6 1.65  25 1.69  30 1.69  27 1.71
  29  0.580  0.375  0.000-  26 1.69  31 1.69  27 1.71  32 1.71  30 1.76
  30  0.753  0.375  0.000-  28 1.69  33 1.69  32 1.71  27 1.71  29 1.76
  31  0.498  0.500  0.000-  13 1.65  29 1.69  34 1.69  32 1.71
  32  0.667  0.500  0.000-  33 1.71  31 1.71  30 1.71  35 1.71  34 1.71  29 1.71
  33  0.835  0.500  0.000-  11 1.65  30 1.69  35 1.69  32 1.71
  34  0.580  0.625  0.000-  31 1.69  36 1.69  32 1.71  37 1.71  35 1.76
  35  0.753  0.625  0.000-  33 1.69  38 1.69  37 1.71  32 1.71  34 1.76
  36  0.498  0.750  0.000-  18 1.65  34 1.69  39 1.69  37 1.71
  37  0.667  0.750  0.000-  38 1.71  36 1.71  35 1.71  40 1.71  39 1.71  34 1.71
  38  0.835  0.750  0.000-  16 1.65  35 1.69  40 1.69  37 1.71
  39  0.580  0.875  0.000-  21 1.69  36 1.69  22 1.71  37 1.71  40 1.76
  40  0.753  0.875  0.000-  23 1.69  38 1.69  37 1.71  22 1.71  39 1.76
  41  0.417  0.125  0.133-  24 2.60   5 2.60  21 2.62  26 2.62   8 2.62   3 2.62
 
  LATTYP: Found a simple orthorhombic cell.
 ALAT       =    10.1600000000
 B/A-ratio  =     1.1574803150
 C/A-ratio  =     1.4763779528
  
  Lattice vectors:
  
 A1 = (  10.1600000000,   0.0000000000,   0.0000000000)
 A2 = (   0.0000000000,  11.7600000000,   0.0000000000)
 A3 = (   0.0000000000,   0.0000000000,  15.0000000000)


Analysis of symmetry for initial positions (statically):
=====================================================================
 Subroutine PRICEL returns:
 Original cell was already a primitive cell.
 

 Routine SETGRP: Setting up the symmetry group for a 
 simple orthorhombic supercell.


 Subroutine GETGRP returns: Found  2 space group operations
 (whereof  1 operations were pure point group operations)
 out of a pool of  8 trial point group operations.


The static configuration has the point symmetry C_1 .
 The point group associated with its full space group is C_1h.


Analysis of symmetry for dynamics (positions and initial velocities):
=====================================================================
 Subroutine PRICEL returns:
 Original cell was already a primitive cell.
 

 Routine SETGRP: Setting up the symmetry group for a 
 simple orthorhombic supercell.


 Subroutine GETGRP returns: Found  2 space group operations
 (whereof  1 operations were pure point group operations)
 out of a pool of  8 trial point group operations.


The dynamic configuration has the point symmetry C_1 .
 The point group associated with its full space group is C_1h.


Analysis of magnetic symmetry:
=====================================================================

 Subroutine MAGSYM returns: Found  2 space group operations
 (whereof  1 operations were pure point group operations)
 out of a pool of  2 trial space group operations
 (whereof  1 operations were pure point group operations)
 and found also     1 'primitive' translations


The magnetic configuration has the point symmetry C_1 .
 The point group associated with its full space group is C_1h.


 irot  :   1
 --------------------------------------------------------------------
 isymop:   1   0   0
           0   1   0
           0   0   1

 gtrans:     0.0000000     0.0000000     0.0000000

 ptrans:     0.0000000     0.0000000     0.0000000
 rotmap:
 (   1->   1)  (   2->   2)  (   3->   3)  (   4->   4)  (   5->   5) 
 (   6->   6)  (   7->   7)  (   8->   8)  (   9->   9)  (  10->  10) 
 (  11->  11)  (  12->  12)  (  13->  13)  (  14->  14)  (  15->  15) 
 (  16->  16)  (  17->  17)  (  18->  18)  (  19->  19)  (  20->  20) 
 (  21->  21)  (  22->  22)  (  23->  23)  (  24->  24)  (  25->  25) 
 (  26->  26)  (  27->  27)  (  28->  28)  (  29->  29)  (  30->  30) 
 (  31->  31)  (  32->  32)  (  33->  33)  (  34->  34)  (  35->  35) 
 (  36->  36)  (  37->  37)  (  38->  38)  (  39->  39)  (  40->  40) 
 (  41->  41) 


 irot  :   2
 --------------------------------------------------------------------
 isymop:   1   0   0
           0  -1   0
           0   0   1

 gtrans:     0.0000000     0.2500000     0.0000000

 ptrans:     0.0000000     0.0000000     0.0000000
 rotmap:
 (   1->   6)  (   2->   7)  (   3->   8)  (   4->   4)  (   5->   5) 
 (   6->   1)  (   7->   2)  (   8->   3)  (   9->  19)  (  10->  20) 
 (  11->  16)  (  12->  17)  (  13->  18)  (  14->  14)  (  15->  15) 
 (  16->  11)  (  17->  12)  (  18->  13)  (  19->   9)  (  20->  10) 
 (  21->  26)  (  22->  27)  (  23->  28)  (  24->  24)  (  25->  25) 
 (  26->  21)  (  27->  22)  (  28->  23)  (  29->  39)  (  30->  40) 
 (  31->  36)  (  32->  37)  (  33->  38)  (  34->  34)  (  35->  35) 
 (  36->  31)  (  37->  32)  (  38->  33)  (  39->  29)  (  40->  30) 
 (  41->  41) 
 
 
 KPOINTS: K-Points                                

Automatic generation of k-mesh.
Space group operators:
 irot       det(A)        alpha          n_x          n_y          n_z        tau_x        tau_y        tau_z
    1     1.000000     0.000000     1.000000     0.000000     0.000000     0.000000     0.000000     0.000000
    2    -1.000000   180.000000     0.000000     1.000000     0.000000     0.000000     0.250000     0.000000
 
 Subroutine IBZKPT returns following result:
 ===========================================
 
 Found      6 irreducible k-points:
 
 Following reciprocal coordinates:
            Coordinates               Weight
  0.000000  0.000000  0.250000      2.000000
  0.333333  0.000000  0.250000      2.000000
 -0.333333  0.000000  0.250000      2.000000
  0.000000  0.333333  0.250000      4.000000
  0.333333  0.333333  0.250000      4.000000
 -0.333333  0.333333  0.250000      4.000000
 
 Following cartesian coordinates:
            Coordinates               Weight
  0.000000  0.000000  0.016667      2.000000
  0.032808  0.000000  0.016667      2.000000
 -0.032808  0.000000  0.016667      2.000000
  0.000000  0.028345  0.016667      4.000000
  0.032808  0.028345  0.016667      4.000000
 -0.032808  0.028345  0.016667      4.000000
 


--------------------------------------------------------------------------------------------------------




 Dimension of arrays:
   k-points           NKPTS =      6   k-points in BZ     NKDIM =      6   number of bands    NBANDS=     83
   number of dos      NEDOS =    301   number of ions     NIONS =     41
   non local maximal  LDIM  =      4   non local SUM 2l+1 LMDIM =      8
   total plane-waves  NPLWV = 301056
   max r-space proj   IRMAX =   1159   max aug-charges    IRDMAX=   5815
   dimension x,y,z NGX =    56 NGY =   64 NGZ =   84
   dimension x,y,z NGXF=   112 NGYF=  128 NGZF=  168
   support grid    NGXF=   112 NGYF=  128 NGZF=  168
   ions per type =              40   1
 NGX,Y,Z   is equivalent  to a cutoff of   9.16,  9.05,  9.31 a.u.
 NGXF,Y,Z  is equivalent  to a cutoff of  18.33, 18.09, 18.62 a.u.


 I would recommend the setting:
   dimension x,y,z NGX =    56 NGY =   64 NGZ =   82
 SYSTEM =  Beta12Borophene !The name of the system 
 POSCAR =  AdsorptionEnergy                        

 Startparameter for this run:
   NWRITE =      2    write-flag & timer
   PREC   = normal    normal or accurate (medium, high low for compatibility)
   ISTART =      0    job   : 0-new  1-cont  2-samecut
   ICHARG =      2    charge: 1-file 2-atom 10-const
   ISPIN  =      2    spin polarized calculation?
   LNONCOLLINEAR =      F non collinear calculations
   LSORBIT =      F    spin-orbit coupling
   INIWAV =      1    electr: 0-lowe 1-rand  2-diag
   LASPH  =      F    aspherical Exc in radial PAW
   METAGGA=      F    non-selfconsistent MetaGGA calc.

 Electronic Relaxation 1
   ENCUT  =  500.0 eV  36.75 Ry    6.06 a.u.  18.52 21.44 27.35*2*pi/ulx,y,z
   ENINI  =  500.0     initial cutoff
   ENAUG  =  535.5 eV  augmentation charge cutoff
   NELM   =     60;   NELMIN=  2; NELMDL= -5     # of ELM steps 
   EDIFF  = 0.1E-03   stopping-criterion for ELM
   LREAL  =      T    real-space projection
   NLSPLINE    = F    spline interpolate recip. space projectors
   LCOMPAT=      F    compatible to vasp.4.4
   GGA_COMPAT  = T    GGA compatible to vasp.4.4-vasp.4.6
   LMAXPAW     = -100 max onsite density
   LMAXMIX     =    2 max onsite mixed and CHGCAR
   VOSKOWN=      0    Vosko Wilk Nusair interpolation
   ROPT   =   -0.00050  -0.00050
 Ionic relaxation
   EDIFFG = -.1E-01   stopping-criterion for IOM
   NSW    =   1000    number of steps for IOM
   NBLOCK =      1;   KBLOCK =   1000    inner block; outer block 
   IBRION =      2    ionic relax: 0-MD 1-quasi-New 2-CG
   NFREE  =      1    steps in history (QN), initial steepest desc. (CG)
   ISIF   =      2    stress and relaxation
   IWAVPR =     11    prediction:  0-non 1-charg 2-wave 3-comb
   ISYM   =      2    0-nonsym 1-usesym 2-fastsym
   LCORR  =      T    Harris-Foulkes like correction to forces

   POTIM  = 0.5000    time-step for ionic-motion
   TEIN   =    0.0    initial temperature
   TEBEG  =    0.0;   TEEND  =   0.0 temperature during run
   SMASS  =  -3.00    Nose mass-parameter (am)
   estimated Nose-frequenzy (Omega)   =  0.10E-29 period in steps =****** mass=  -0.236E-26a.u.
   SCALEE = 1.0000    scale energy and forces
   NPACO  =    256;   APACO  = 16.0  distance and # of slots for P.C.
   PSTRESS=    0.0 pullay stress

  Mass of Ions in am
   POMASS =  10.81 28.09
  Ionic Valenz
   ZVAL   =   3.00  4.00
  Atomic Wigner-Seitz radii
   RWIGS  =  -1.00 -1.00
  virtual crystal weights 
   VCA    =   1.00  1.00
   NELECT =     124.0000    total number of electrons
   NUPDOWN=      -1.0000    fix difference up-down

 DOS related values:
   EMIN   =  10.00;   EMAX   =-10.00  energy-range for DOS
   EFERMI =   0.00
   ISMEAR =     1;   SIGMA  =   0.10  broadening in eV -4-tet -1-fermi 0-gaus

 Electronic relaxation 2 (details)
   IALGO  =     38    algorithm
   LDIAG  =      T    sub-space diagonalisation (order eigenvalues)
   LSUBROT=      T    optimize rotation matrix (better conditioning)
   TURBO    =      0    0=normal 1=particle mesh
   IRESTART =      0    0=no restart 2=restart with 2 vectors
   NREBOOT  =      0    no. of reboots
   NMIN     =      0    reboot dimension
   EREF     =   0.00    reference energy to select bands
   IMIX   =      4    mixing-type and parameters
     AMIX     =   0.40;   BMIX     =  1.00
     AMIX_MAG =   1.60;   BMIX_MAG =  1.00
     AMIN     =   0.10
     WC   =   100.;   INIMIX=   1;  MIXPRE=   1;  MAXMIX= -45

 Intra band minimization:
   WEIMIN = 0.0010     energy-eigenvalue tresh-hold
   EBREAK =  0.30E-06  absolut break condition
   DEPER  =   0.30     relativ break condition  

   TIME   =   0.40     timestep for ELM

  volume/ion in A,a.u.               =      43.71       294.99
  Fermi-wavevector in a.u.,A,eV,Ry     =   0.672075  1.270038  6.145551  0.451685
  Thomas-Fermi vector in A             =   1.748086
 
 Write flags
   LWAVE  =      F    write WAVECAR
   LCHARG =      F    write CHGCAR
   LVTOT  =      F    write LOCPOT, total local potential
   LVHAR  =      F    write LOCPOT, Hartree potential only
   LELF   =      F    write electronic localiz. function (ELF)
   LORBIT =      0    0 simple, 1 ext, 2 COOP (PROOUT)


 Dipole corrections
   LMONO  =      F    monopole corrections only (constant potential shift)
   LDIPOL =      T    correct potential (dipole corrections)
   IDIPOL =      3    1-x, 2-y, 3-z, 4-all directions 
   EPSILON=  1.0000000 bulk dielectric constant

 Exchange correlation treatment:
   GGA     =    PE    GGA type
   LEXCH   =     8    internal setting for exchange type
   VOSKOWN=      0    Vosko Wilk Nusair interpolation
   LHFCALC =     F    Hartree Fock is set to
   LHFONE  =     F    Hartree Fock one center treatment
   AEXX    =    0.0000 exact exchange contribution

 Linear response parameters
   LEPSILON=     F    determine dielectric tensor
   LRPA    =     F    only Hartree local field effects (RPA)
   LNABLA  =     F    use nabla operator in PAW spheres
   LVEL    =     F    velocity operator in full k-point grid
   LINTERFAST=   F  fast interpolation
   KINTER  =     0    interpolate to denser k-point grid
   CSHIFT  =0.1000    complex shift for real part using Kramers Kronig
   OMEGAMAX=  -1.0    maximum frequency
   DEG_THRESHOLD= 0.2000000E-02 threshold for treating states as degnerate
   RTIME   =    0.100 relaxation time in fs

 Orbital magnetization related:
   ORBITALMAG=     F  switch on orbital magnetization
   LCHIMAG   =     F  perturbation theory with respect to B field
   DQ        =  0.001000  dq finite difference perturbation B field



--------------------------------------------------------------------------------------------------------


 conjugate gradient relaxation of ions
 charge density and potential will be updated during run
 spin polarized calculation
 Variant of blocked Davidson
 Davidson routine will perform the subspace rotation
 perform sub-space diagonalisation
    after iterative eigenvector-optimisation
 modified Broyden-mixing scheme, WC =      100.0
 initial mixing is a Kerker type mixing with AMIX =  0.4000 and BMIX =      1.0000
 Hartree-type preconditioning will be used
 using additional bands           21
 real space projection scheme for non local part
 use partial core corrections
 calculate Harris-corrections to forces 
   (improved forces if not selfconsistent)
 use gradient corrections 
 use of overlap-Matrix (Vanderbilt PP)
 Methfessel and Paxton  Order N= 1 SIGMA  =   0.10


--------------------------------------------------------------------------------------------------------


  energy-cutoff  :      500.00
  volume of cell :     1792.22
      direct lattice vectors                 reciprocal lattice vectors
    10.160000000  0.000000000  0.000000000     0.098425197  0.000000000  0.000000000
     0.000000000 11.760000000  0.000000000     0.000000000  0.085034014  0.000000000
     0.000000000  0.000000000 15.000000000     0.000000000  0.000000000  0.066666667

  length of vectors
    10.160000000 11.760000000 15.000000000     0.098425197  0.085034014  0.066666667


 
 k-points in units of 2pi/SCALE and weight: K-Points                                
   0.00000000  0.00000000  0.01666667       0.111
   0.03280840  0.00000000  0.01666667       0.111
  -0.03280840  0.00000000  0.01666667       0.111
   0.00000000  0.02834467  0.01666667       0.222
   0.03280840  0.02834467  0.01666667       0.222
  -0.03280840  0.02834467  0.01666667       0.222
 
 k-points in reciprocal lattice and weights: K-Points                                
   0.00000000  0.00000000  0.25000000       0.111
   0.33333333  0.00000000  0.25000000       0.111
  -0.33333333  0.00000000  0.25000000       0.111
   0.00000000  0.33333333  0.25000000       0.222
   0.33333333  0.33333333  0.25000000       0.222
  -0.33333333  0.33333333  0.25000000       0.222
 
 position of ions in fractional coordinates (direct lattice) 
   0.99811000  0.00000000  0.00000000
   0.16667000  0.00000000  0.00000000
   0.33522000  0.00000000  0.00000000
   0.08000000  0.12500000  0.00000000
   0.25334000  0.12500000  0.00000000
   0.99811000  0.25000000  0.00000000
   0.16667000  0.25000000  0.00000000
   0.33522000  0.25000000  0.00000000
   0.08000000  0.37500000  0.00000000
   0.25334000  0.37500000  0.00000000
   0.99811000  0.50000000  0.00000000
   0.16667000  0.50000000  0.00000000
   0.33522000  0.50000000  0.00000000
   0.08000000  0.62500000  0.00000000
   0.25334000  0.62500000  0.00000000
   0.99811000  0.75000000  0.00000000
   0.16667000  0.75000000  0.00000000
   0.33522000  0.75000000  0.00000000
   0.08000000  0.87500000  0.00000000
   0.25334000  0.87500000  0.00000000
   0.49811000  0.00000000  0.00000000
   0.66667000  0.00000000  0.00000000
   0.83522000  0.00000000  0.00000000
   0.58000000  0.12500000  0.00000000
   0.75334000  0.12500000  0.00000000
   0.49811000  0.25000000  0.00000000
   0.66667000  0.25000000  0.00000000
   0.83522000  0.25000000  0.00000000
   0.58000000  0.37500000  0.00000000
   0.75334000  0.37500000  0.00000000
   0.49811000  0.50000000  0.00000000
   0.66667000  0.50000000  0.00000000
   0.83522000  0.50000000  0.00000000
   0.58000000  0.62500000  0.00000000
   0.75334000  0.62500000  0.00000000
   0.49811000  0.75000000  0.00000000
   0.66667000  0.75000000  0.00000000
   0.83522000  0.75000000  0.00000000
   0.58000000  0.87500000  0.00000000
   0.75334000  0.87500000  0.00000000
   0.41667000  0.12500000  0.13333000
 
 position of ions in cartesian coordinates  (Angst):
  10.14079760  0.00000000  0.00000000
   1.69336720  0.00000000  0.00000000
   3.40583520  0.00000000  0.00000000
   0.81280000  1.47000000  0.00000000
   2.57393440  1.47000000  0.00000000
  10.14079760  2.94000000  0.00000000
   1.69336720  2.94000000  0.00000000
   3.40583520  2.94000000  0.00000000
   0.81280000  4.41000000  0.00000000
   2.57393440  4.41000000  0.00000000
  10.14079760  5.88000000  0.00000000
   1.69336720  5.88000000  0.00000000
   3.40583520  5.88000000  0.00000000
   0.81280000  7.35000000  0.00000000
   2.57393440  7.35000000  0.00000000
  10.14079760  8.82000000  0.00000000
   1.69336720  8.82000000  0.00000000
   3.40583520  8.82000000  0.00000000
   0.81280000 10.29000000  0.00000000
   2.57393440 10.29000000  0.00000000
   5.06079760  0.00000000  0.00000000
   6.77336720  0.00000000  0.00000000
   8.48583520  0.00000000  0.00000000
   5.89280000  1.47000000  0.00000000
   7.65393440  1.47000000  0.00000000
   5.06079760  2.94000000  0.00000000
   6.77336720  2.94000000  0.00000000
   8.48583520  2.94000000  0.00000000
   5.89280000  4.41000000  0.00000000
   7.65393440  4.41000000  0.00000000
   5.06079760  5.88000000  0.00000000
   6.77336720  5.88000000  0.00000000
   8.48583520  5.88000000  0.00000000
   5.89280000  7.35000000  0.00000000
   7.65393440  7.35000000  0.00000000
   5.06079760  8.82000000  0.00000000
   6.77336720  8.82000000  0.00000000
   8.48583520  8.82000000  0.00000000
   5.89280000 10.29000000  0.00000000
   7.65393440 10.29000000  0.00000000
   4.23336720  1.47000000  1.99995000
 


--------------------------------------------------------------------------------------------------------


 k-point  1 :   0.0000 0.0000 0.2500  plane waves:   45501
 k-point  2 :   0.3333 0.0000 0.2500  plane waves:   45508
 k-point  3 :  -0.3333 0.0000 0.2500  plane waves:   45508
 k-point  4 :   0.0000 0.3333 0.2500  plane waves:   45494
 k-point  5 :   0.3333 0.3333 0.2500  plane waves:   45490
 k-point  6 :  -0.3333 0.3333 0.2500  plane waves:   45490

 maximum and minimum number of plane-waves per node :     11396    11341

 maximum number of plane-waves:     45508
 maximum index in each direction: 
   IXMAX=   18   IYMAX=   21   IZMAX=   27
   IXMIN=  -18   IYMIN=  -21   IZMIN=  -27

 WARNING: aliasing errors must be expected set NGX to  74 to avoid them
 WARNING: aliasing errors must be expected set NGY to  86 to avoid them
 WARNING: aliasing errors must be expected set NGZ to 110 to avoid them
 aliasing errors are usually negligible using standard VASP settings
 and one can safely disregard these warnings

 real space projection operators:
  total allocation   :       2758.62 KBytes
  max/ min on nodes  :        694.50        683.56


 parallel 3D FFT for wavefunctions:
    minimum data exchange during FFTs selected (reduces bandwidth)
 parallel 3D FFT for charge:
    minimum data exchange during FFTs selected (reduces bandwidth)


 total amount of memory used by VASP on root node   291795. kBytes
========================================================================

   base      :      30000. kBytes
   nonlr-proj:       1619. kBytes
   fftplans  :      22742. kBytes
   grid      :      54677. kBytes
   one-center:         67. kBytes
   wavefun   :     182690. kBytes
 
 Broyden mixing: mesh for mixing (old mesh)
   NGX = 37   NGY = 43   NGZ = 55
  (NGX  =112   NGY  =128   NGZ  =168)
  gives a total of  87505 points

 initial charge density was supplied:
 charge density of overlapping atoms calculated
 number of electron     124.0000000 magnetization       0.0000000
 keeping initial charge density in first step


--------------------------------------------------------------------------------------------------------


 Maximum index for non-local projection operator          281
 Maximum index for augmentation-charges         1368 (set IRDMAX)


--------------------------------------------------------------------------------------------------------


 First call to EWALD:  gamma=   0.146
 Maximum number of real-space cells 3x 3x 2
 Maximum number of reciprocal cells 2x 3x 3

 FEWALD executed in parallel
    FEWALD:  cpu time    0.00: real time    0.00


----------------------------------------- Iteration    1(   1)  ---------------------------------------


    POTLOK:  cpu time    0.82: real time    0.82
    SETDIJ:  cpu time    0.05: real time    0.05
     EDDAV:  cpu time   18.25: real time   18.26
       DOS:  cpu time    0.00: real time    0.00
    --------------------------------------------
      LOOP:  cpu time   19.12: real time   19.13

 eigenvalue-minimisations  :  2056
 total energy-change (2. order) : 0.8829287E+03  (-0.4086353E+04)
 number of electron     124.0000000 magnetization       0.0000000
 augmentation part      124.0000000 magnetization       0.0000000

 DIPCOR: dipole corrections for dipol
 direction  3 min pos    88,
 dipolmoment           0.000000      0.000000     -0.000025 electrons x Angstroem
 Tr[quadrupol]     -2533.751857

 energy correction for charged system         0.000000 eV
 dipol+quadrupol energy correction           -0.000000 eV
 added-field ion interaction         -0.000064 eV  (added to PSCEN)


 Free energy of the ion-electron system (eV)
  ---------------------------------------------------
  alpha Z        PSCENC =        64.04593885
  Ewald energy   TEWEN  =      8192.04429513
  -1/2 Hartree   DENC   =    -10153.66580273
  -exchange  EXHF       =         0.00000000
  -V(xc)+E(xc)   XCENC  =       260.63594277
  PAW double counting   =      1828.11841984    -1776.31234012
  entropy T*S    EENTRO =         0.00591931
  eigenvalues    EBANDS =      -481.77460053
  atomic energy  EATOM  =      2949.83092804
  ---------------------------------------------------
  free energy    TOTEN  =       882.92870055 eV

  energy without entropy =      882.92278124  energy(sigma->0) =      882.92672745


--------------------------------------------------------------------------------------------------------




----------------------------------------- Iteration    1(   2)  ---------------------------------------


     EDDAV:  cpu time   27.66: real time   27.66
       DOS:  cpu time    0.00: real time    0.00
    --------------------------------------------
      LOOP:  cpu time   27.67: real time   27.67

 eigenvalue-minimisations  :  2880
 total energy-change (2. order) :-0.1027270E+04  (-0.9902808E+03)
 number of electron     124.0000000 magnetization       0.0000000
 augmentation part      124.0000000 magnetization       0.0000000

 DIPCOR: dipole corrections for dipol
 direction  3 min pos    88,
 dipolmoment           0.000000      0.000000     -0.000025 electrons x Angstroem
 Tr[quadrupol]     -2533.751857

 energy correction for charged system         0.000000 eV
 dipol+quadrupol energy correction           -0.000000 eV
 added-field ion interaction         -0.000064 eV  (added to PSCEN)


 Free energy of the ion-electron system (eV)
  ---------------------------------------------------
  alpha Z        PSCENC =        64.04593885
  Ewald energy   TEWEN  =      8192.04429513
  -1/2 Hartree   DENC   =    -10153.66580273
  -exchange  EXHF       =         0.00000000
  -V(xc)+E(xc)   XCENC  =       260.63594277
  PAW double counting   =      1828.11841984    -1776.31234012
  entropy T*S    EENTRO =        -0.00122277
  eigenvalues    EBANDS =     -1509.03733865
  atomic energy  EATOM  =      2949.83092804
  ---------------------------------------------------
  free energy    TOTEN  =      -144.34117965 eV

  energy without entropy =     -144.33995688  energy(sigma->0) =     -144.34077206


--------------------------------------------------------------------------------------------------------




----------------------------------------- Iteration    1(   3)  ---------------------------------------


     EDDAV:  cpu time   23.51: real time   23.51
       DOS:  cpu time    0.00: real time    0.00
    --------------------------------------------
      LOOP:  cpu time   23.52: real time   23.52

 eigenvalue-minimisations  :  2328
 total energy-change (2. order) :-0.1351456E+03  (-0.1336274E+03)
 number of electron     124.0000000 magnetization       0.0000000
 augmentation part      124.0000000 magnetization       0.0000000

 DIPCOR: dipole corrections for dipol
 direction  3 min pos    88,
 dipolmoment           0.000000      0.000000     -0.000025 electrons x Angstroem
 Tr[quadrupol]     -2533.751857

 energy correction for charged system         0.000000 eV
 dipol+quadrupol energy correction           -0.000000 eV
 added-field ion interaction         -0.000064 eV  (added to PSCEN)


 Free energy of the ion-electron system (eV)
  ---------------------------------------------------
  alpha Z        PSCENC =        64.04593885
  Ewald energy   TEWEN  =      8192.04429513
  -1/2 Hartree   DENC   =    -10153.66580273
  -exchange  EXHF       =         0.00000000
  -V(xc)+E(xc)   XCENC  =       260.63594277
  PAW double counting   =      1828.11841984    -1776.31234012
  entropy T*S    EENTRO =        -0.00782009
  eigenvalues    EBANDS =     -1644.17630464
  atomic energy  EATOM  =      2949.83092804
  ---------------------------------------------------
  free energy    TOTEN  =      -279.48674296 eV

  energy without entropy =     -279.47892286  energy(sigma->0) =     -279.48413626


--------------------------------------------------------------------------------------------------------




----------------------------------------- Iteration    1(   4)  ---------------------------------------


     EDDAV:  cpu time   26.45: real time   26.45
       DOS:  cpu time    0.00: real time    0.00
    --------------------------------------------
      LOOP:  cpu time   26.46: real time   26.46

 eigenvalue-minimisations  :  2744
 total energy-change (2. order) :-0.4513968E+01  (-0.4482108E+01)
 number of electron     124.0000000 magnetization       0.0000000
 augmentation part      124.0000000 magnetization       0.0000000

 DIPCOR: dipole corrections for dipol
 direction  3 min pos    88,
 dipolmoment           0.000000      0.000000     -0.000025 electrons x Angstroem
 Tr[quadrupol]     -2533.751857

 energy correction for charged system         0.000000 eV
 dipol+quadrupol energy correction           -0.000000 eV
 added-field ion interaction         -0.000064 eV  (added to PSCEN)


 Free energy of the ion-electron system (eV)
  ---------------------------------------------------
  alpha Z        PSCENC =        64.04593885
  Ewald energy   TEWEN  =      8192.04429513
  -1/2 Hartree   DENC   =    -10153.66580273
  -exchange  EXHF       =         0.00000000
  -V(xc)+E(xc)   XCENC  =       260.63594277
  PAW double counting   =      1828.11841984    -1776.31234012
  entropy T*S    EENTRO =        -0.00626787
  eigenvalues    EBANDS =     -1648.69182487
  atomic energy  EATOM  =      2949.83092804
  ---------------------------------------------------
  free energy    TOTEN  =      -284.00071097 eV

  energy without entropy =     -283.99444310  energy(sigma->0) =     -283.99862168


--------------------------------------------------------------------------------------------------------




----------------------------------------- Iteration    1(   5)  ---------------------------------------


     EDDAV:  cpu time   26.91: real time   26.91
       DOS:  cpu time    0.00: real time    0.00
    CHARGE:  cpu time    1.34: real time    1.34
    MIXING:  cpu time    0.02: real time    0.02
    --------------------------------------------
      LOOP:  cpu time   28.27: real time   28.28

 eigenvalue-minimisations  :  2816
 total energy-change (2. order) :-0.1411627E+00  (-0.1407426E+00)
 number of electron     124.0000017 magnetization       0.0000381
 augmentation part       -0.3400006 magnetization      -0.0004859

 DIPCOR: dipole corrections for dipol
 direction  3 min pos    88,
 dipolmoment           0.000000      0.000000     -0.000025 electrons x Angstroem
 Tr[quadrupol]     -2533.751857

 energy correction for charged system         0.000000 eV
 dipol+quadrupol energy correction           -0.000000 eV
 added-field ion interaction         -0.000064 eV  (added to PSCEN)


 Broyden mixing:
  rms(total) = 0.22312E+01    rms(broyden)= 0.22312E+01
  rms(prec ) = 0.27402E+01
  weight for this iteration     100.00

 Free energy of the ion-electron system (eV)
  ---------------------------------------------------
  alpha Z        PSCENC =        64.04593885
  Ewald energy   TEWEN  =      8192.04429513
  -1/2 Hartree   DENC   =    -10153.66580273
  -exchange  EXHF       =         0.00000000
  -V(xc)+E(xc)   XCENC  =       260.63594277
  PAW double counting   =      1828.11841984    -1776.31234012
  entropy T*S    EENTRO =        -0.00601690
  eigenvalues    EBANDS =     -1648.83323859
  atomic energy  EATOM  =      2949.83092804
  ---------------------------------------------------
  free energy    TOTEN  =      -284.14187372 eV

  energy without entropy =     -284.13585682  energy(sigma->0) =     -284.13986808


--------------------------------------------------------------------------------------------------------




----------------------------------------- Iteration    1(   6)  ---------------------------------------


    POTLOK:  cpu time    1.10: real time    1.10
    SETDIJ:  cpu time    0.05: real time    0.05
     EDDAV:  cpu time   24.19: real time   24.20
       DOS:  cpu time    0.00: real time    0.00
    CHARGE:  cpu time    1.36: real time    1.36
    MIXING:  cpu time    0.02: real time    0.02
    --------------------------------------------
      LOOP:  cpu time   26.73: real time   26.74

 eigenvalue-minimisations  :  2464
 total energy-change (2. order) : 0.2059371E+02  (-0.2041651E+01)
 number of electron     124.0000019 magnetization      -0.0001114
 augmentation part       -0.5038461 magnetization       0.0000155

 DIPCOR: dipole corrections for dipol
 direction  3 min pos    91,
 dipolmoment           0.000000      0.000000     -0.331895 electrons x Angstroem
 Tr[quadrupol]     -2535.752338

 energy correction for charged system         0.000000 eV
 dipol+quadrupol energy correction           -0.005642 eV
 added-field ion interaction         -1.986456 eV  (added to PSCEN)


 Broyden mixing:
  rms(total) = 0.12924E+01    rms(broyden)= 0.12924E+01
  rms(prec ) = 0.15385E+01
  weight for this iteration     100.00

 eigenvalues of (default mixing * dielectric matrix)
  average eigenvalue GAMMA=   2.1122
  2.1122

 Free energy of the ion-electron system (eV)
  ---------------------------------------------------
  alpha Z        PSCENC =        62.05390509
  Ewald energy   TEWEN  =      8192.04429513
  -1/2 Hartree   DENC   =    -10312.65480721
  -exchange  EXHF       =         0.00000000
  -V(xc)+E(xc)   XCENC  =       265.51517450
  PAW double counting   =      4433.02691448    -4383.01481671
  entropy T*S    EENTRO =         0.00862211
  eigenvalues    EBANDS =     -1470.35837868
  atomic energy  EATOM  =      2949.83092804
  ---------------------------------------------------
  free energy    TOTEN  =      -263.54816326 eV

  energy without entropy =     -263.55678537  energy(sigma->0) =     -263.55103729


--------------------------------------------------------------------------------------------------------




----------------------------------------- Iteration    1(   7)  ---------------------------------------


    POTLOK:  cpu time    1.06: real time    1.06
    SETDIJ:  cpu time    0.05: real time    0.05
     EDDAV:  cpu time   23.42: real time   23.43
       DOS:  cpu time    0.00: real time    0.00
    CHARGE:  cpu time    1.33: real time    1.33
    MIXING:  cpu time    0.02: real time    0.02
    --------------------------------------------
      LOOP:  cpu time   25.89: real time   25.90

 eigenvalue-minimisations  :  2368
 total energy-change (2. order) : 0.7891534E+01  (-0.1776759E+01)
 number of electron     124.0000021 magnetization       0.0000955
 augmentation part       -0.6612968 magnetization      -0.0004678

 DIPCOR: dipole corrections for dipol
 direction  3 min pos    92,
 dipolmoment           0.000000      0.000000     -0.440537 electrons x Angstroem
 Tr[quadrupol]     -2538.523151

 energy correction for charged system         0.000000 eV
 dipol+quadrupol energy correction           -0.009940 eV
 added-field ion interaction         -3.136312 eV  (added to PSCEN)


 Broyden mixing:
  rms(total) = 0.33664E+00    rms(broyden)= 0.33664E+00
  rms(prec ) = 0.44987E+00
  weight for this iteration     100.00

 eigenvalues of (default mixing * dielectric matrix)
  average eigenvalue GAMMA=   1.5902
  1.0307  2.1496

 Free energy of the ion-electron system (eV)
  ---------------------------------------------------
  alpha Z        PSCENC =        60.89975140
  Ewald energy   TEWEN  =      8192.04429513
  -1/2 Hartree   DENC   =    -10503.71292086
  -exchange  EXHF       =         0.00000000
  -V(xc)+E(xc)   XCENC  =       272.32980105
  PAW double counting   =      9212.68483864    -9164.35569296
  entropy T*S    EENTRO =         0.01033114
  eigenvalues    EBANDS =     -1275.38796109
  atomic energy  EATOM  =      2949.83092804
  ---------------------------------------------------
  free energy    TOTEN  =      -255.65662952 eV

  energy without entropy =     -255.66696066  energy(sigma->0) =     -255.66007323


--------------------------------------------------------------------------------------------------------




----------------------------------------- Iteration    1(   8)  ---------------------------------------


    POTLOK:  cpu time    1.07: real time    1.07
    SETDIJ:  cpu time    0.05: real time    0.05
     EDDAV:  cpu time   24.79: real time   24.79
       DOS:  cpu time    0.00: real time    0.00
    CHARGE:  cpu time    1.36: real time    1.36
    MIXING:  cpu time    0.03: real time    0.03
    --------------------------------------------
      LOOP:  cpu time   27.30: real time   27.31

 eigenvalue-minimisations  :  2544
 total energy-change (2. order) : 0.4915961E+00  (-0.1276075E+00)
 number of electron     124.0000020 magnetization       0.0000860
 augmentation part       -0.6717436 magnetization      -0.0000125

 DIPCOR: dipole corrections for dipol
 direction  3 min pos    92,
 dipolmoment           0.000000      0.000000     -0.308467 electrons x Angstroem
 Tr[quadrupol]     -2539.803042

 energy correction for charged system         0.000000 eV
 dipol+quadrupol energy correction           -0.004874 eV
 added-field ion interaction         -2.196068 eV  (added to PSCEN)


 Broyden mixing:
  rms(total) = 0.16514E+00    rms(broyden)= 0.16514E+00
  rms(prec ) = 0.24298E+00
  weight for this iteration     100.00

 eigenvalues of (default mixing * dielectric matrix)
  average eigenvalue GAMMA=   1.5610
  2.3292  1.1769  1.1769

 Free energy of the ion-electron system (eV)
  ---------------------------------------------------
  alpha Z        PSCENC =        61.84506209
  Ewald energy   TEWEN  =      8192.04429513
  -1/2 Hartree   DENC   =    -10541.54997472
  -exchange  EXHF       =         0.00000000
  -V(xc)+E(xc)   XCENC  =       273.57424889
  PAW double counting   =     10231.50638285   -10183.24095717
  entropy T*S    EENTRO =         0.00556154
  eigenvalues    EBANDS =     -1239.18058011
  atomic energy  EATOM  =      2949.83092804
  ---------------------------------------------------
  free energy    TOTEN  =      -255.16503347 eV

  energy without entropy =     -255.17059501  energy(sigma->0) =     -255.16688731


--------------------------------------------------------------------------------------------------------




----------------------------------------- Iteration    1(   9)  ---------------------------------------


    POTLOK:  cpu time    1.06: real time    1.06
    SETDIJ:  cpu time    0.05: real time    0.05
     EDDAV:  cpu time   23.60: real time   23.60
       DOS:  cpu time    0.00: real time    0.00
    CHARGE:  cpu time    1.33: real time    1.33
    MIXING:  cpu time    0.02: real time    0.02
    --------------------------------------------
      LOOP:  cpu time   26.08: real time   26.08

 eigenvalue-minimisations  :  2392
 total energy-change (2. order) : 0.1666156E+00  (-0.3610666E-01)
 number of electron     124.0000020 magnetization       0.0000936
 augmentation part       -0.6791939 magnetization      -0.0000077

 DIPCOR: dipole corrections for dipol
 direction  3 min pos    91,
 dipolmoment           0.000000      0.000000     -0.307188 electrons x Angstroem
 Tr[quadrupol]     -2540.977165

 energy correction for charged system         0.000000 eV
 dipol+quadrupol energy correction           -0.004833 eV
 added-field ion interaction         -1.838578 eV  (added to PSCEN)


 Broyden mixing:
  rms(total) = 0.90713E-01    rms(broyden)= 0.90713E-01
  rms(prec ) = 0.15450E+00
  weight for this iteration     100.00

 eigenvalues of (default mixing * dielectric matrix)
  average eigenvalue GAMMA=   1.5729
  2.1716  2.1716  0.9741  0.9741

 Free energy of the ion-electron system (eV)
  ---------------------------------------------------
  alpha Z        PSCENC =        62.20259251
  Ewald energy   TEWEN  =      8192.04429513
  -1/2 Hartree   DENC   =    -10575.52806280
  -exchange  EXHF       =         0.00000000
  -V(xc)+E(xc)   XCENC  =       274.48778706
  PAW double counting   =     10793.15542123   -10744.91198677
  entropy T*S    EENTRO =         0.00610572
  eigenvalues    EBANDS =     -1206.28549798
  atomic energy  EATOM  =      2949.83092804
  ---------------------------------------------------
  free energy    TOTEN  =      -254.99841788 eV

  energy without entropy =     -255.00452360  energy(sigma->0) =     -255.00045312


--------------------------------------------------------------------------------------------------------




----------------------------------------- Iteration    1(  10)  ---------------------------------------


    POTLOK:  cpu time    1.07: real time    1.07
    SETDIJ:  cpu time    0.05: real time    0.05
     EDDAV:  cpu time   23.40: real time   23.41
       DOS:  cpu time    0.00: real time    0.00
    CHARGE:  cpu time    1.27: real time    1.27
    MIXING:  cpu time    0.02: real time    0.02
    --------------------------------------------
      LOOP:  cpu time   25.82: real time   25.83

 eigenvalue-minimisations  :  2368
 total energy-change (2. order) : 0.8239875E-01  (-0.6362086E-02)
 number of electron     124.0000020 magnetization       0.0000345
 augmentation part       -0.6798046 magnetization       0.0000640

 DIPCOR: dipole corrections for dipol
 direction  3 min pos    89,
 dipolmoment           0.000000      0.000000     -0.266736 electrons x Angstroem
 Tr[quadrupol]     -2542.620932

 energy correction for charged system         0.000000 eV
 dipol+quadrupol energy correction           -0.003644 eV
 added-field ion interaction         -0.991450 eV  (added to PSCEN)


 Broyden mixing:
  rms(total) = 0.34063E-01    rms(broyden)= 0.34063E-01
  rms(prec ) = 0.89240E-01
  weight for this iteration     100.00

 eigenvalues of (default mixing * dielectric matrix)
  average eigenvalue GAMMA=   1.5941
  2.4616  2.4616  1.0706  0.9882  0.9882

 Free energy of the ion-electron system (eV)
  ---------------------------------------------------
  alpha Z        PSCENC =        63.05090926
  Ewald energy   TEWEN  =      8192.04429513
  -1/2 Hartree   DENC   =    -10602.18514271
  -exchange  EXHF       =         0.00000000
  -V(xc)+E(xc)   XCENC  =       274.93788739
  PAW double counting   =     10860.35642437   -10811.96499175
  entropy T*S    EENTRO =         0.00508203
  eigenvalues    EBANDS =     -1180.99141089
  atomic energy  EATOM  =      2949.83092804
  ---------------------------------------------------
  free energy    TOTEN  =      -254.91601913 eV

  energy without entropy =     -254.92110116  energy(sigma->0) =     -254.91771314


--------------------------------------------------------------------------------------------------------




----------------------------------------- Iteration    1(  11)  ---------------------------------------


    POTLOK:  cpu time    1.00: real time    1.00
    SETDIJ:  cpu time    0.05: real time    0.05
     EDDAV:  cpu time   23.49: real time   23.49
       DOS:  cpu time    0.00: real time    0.00
    CHARGE:  cpu time    1.33: real time    1.33
    MIXING:  cpu time    0.03: real time    0.03
    --------------------------------------------
      LOOP:  cpu time   25.91: real time   25.92

 eigenvalue-minimisations  :  2368
 total energy-change (2. order) : 0.3911440E-01  (-0.3666811E-02)
 number of electron     124.0000020 magnetization       0.0000311
 augmentation part       -0.6793497 magnetization      -0.0000166

 DIPCOR: dipole corrections for dipol
 direction  3 min pos    88,
 dipolmoment           0.000000      0.000000     -0.242765 electrons x Angstroem
 Tr[quadrupol]     -2544.419206

 energy correction for charged system         0.000000 eV
 dipol+quadrupol energy correction           -0.003019 eV
 added-field ion interaction         -0.627029 eV  (added to PSCEN)


 Broyden mixing:
  rms(total) = 0.26559E-01    rms(broyden)= 0.26559E-01
  rms(prec ) = 0.55967E-01
  weight for this iteration     100.00

 eigenvalues of (default mixing * dielectric matrix)
  average eigenvalue GAMMA=   1.5889
  2.5923  2.5923  1.3874  1.1320  0.9302  0.8995

 Free energy of the ion-electron system (eV)
  ---------------------------------------------------
  alpha Z        PSCENC =        63.41595543
  Ewald energy   TEWEN  =      8192.04429513
  -1/2 Hartree   DENC   =    -10629.00800334
  -exchange  EXHF       =         0.00000000
  -V(xc)+E(xc)   XCENC  =       275.38268918
  PAW double counting   =     10874.10726975   -10825.64856820
  entropy T*S    EENTRO =         0.00497298
  eigenvalues    EBANDS =     -1155.00644369
  atomic energy  EATOM  =      2949.83092804
  ---------------------------------------------------
  free energy    TOTEN  =      -254.87690473 eV

  energy without entropy =     -254.88187771  energy(sigma->0) =     -254.87856239


--------------------------------------------------------------------------------------------------------




----------------------------------------- Iteration    1(  12)  ---------------------------------------


    POTLOK:  cpu time    1.07: real time    1.07
    SETDIJ:  cpu time    0.05: real time    0.05
     EDDAV:  cpu time   23.44: real time   23.44
       DOS:  cpu time    0.00: real time    0.00
    CHARGE:  cpu time    1.32: real time    1.32
    MIXING:  cpu time    0.03: real time    0.03
    --------------------------------------------
      LOOP:  cpu time   25.92: real time   25.92

 eigenvalue-minimisations  :  2368
 total energy-change (2. order) :-0.1088176E-02  (-0.1047466E-02)
 number of electron     124.0000020 magnetization       0.0000121
 augmentation part       -0.6806150 magnetization      -0.0000063

 DIPCOR: dipole corrections for dipol
 direction  3 min pos    87,
 dipolmoment           0.000000      0.000000     -0.232923 electrons x Angstroem
 Tr[quadrupol]     -2545.743060

 energy correction for charged system         0.000000 eV
 dipol+quadrupol energy correction           -0.002779 eV
 added-field ion interaction         -0.337448 eV  (added to PSCEN)


 Broyden mixing:
  rms(total) = 0.14939E-01    rms(broyden)= 0.14939E-01
  rms(prec ) = 0.35570E-01
  weight for this iteration     100.00

 eigenvalues of (default mixing * dielectric matrix)
  average eigenvalue GAMMA=   1.6502
  3.2001  2.6485  1.9471  1.2068  0.9159  0.9159  0.7170

 Free energy of the ion-electron system (eV)
  ---------------------------------------------------
  alpha Z        PSCENC =        63.70577681
  Ewald energy   TEWEN  =      8192.04429513
  -1/2 Hartree   DENC   =    -10643.18365155
  -exchange  EXHF       =         0.00000000
  -V(xc)+E(xc)   XCENC  =       275.54420339
  PAW double counting   =     10816.87874363   -10768.42258007
  entropy T*S    EENTRO =         0.00521475
  eigenvalues    EBANDS =     -1141.28092303
  atomic energy  EATOM  =      2949.83092804
  ---------------------------------------------------
  free energy    TOTEN  =      -254.87799290 eV

  energy without entropy =     -254.88320765  energy(sigma->0) =     -254.87973115


--------------------------------------------------------------------------------------------------------




----------------------------------------- Iteration    1(  13)  ---------------------------------------


    POTLOK:  cpu time    1.07: real time    1.07
    SETDIJ:  cpu time    0.05: real time    0.05
     EDDAV:  cpu time   23.18: real time   23.19
       DOS:  cpu time    0.00: real time    0.00
    CHARGE:  cpu time    1.31: real time    1.31
    MIXING:  cpu time    0.03: real time    0.03
    --------------------------------------------
      LOOP:  cpu time   25.65: real time   25.66

 eigenvalue-minimisations  :  2344
 total energy-change (2. order) :-0.2917614E-02  (-0.1899813E-02)
 number of electron     124.0000020 magnetization       0.0000063
 augmentation part       -0.6809808 magnetization       0.0000088

 DIPCOR: dipole corrections for dipol
 direction  3 min pos    98,
 dipolmoment           0.000000      0.000000      0.017555 electrons x Angstroem
 Tr[quadrupol]     -2546.911473

 energy correction for charged system         0.000000 eV
 dipol+quadrupol energy correction           -0.000016 eV
 added-field ion interaction          0.244432 eV  (added to PSCEN)


 Broyden mixing:
  rms(total) = 0.14842E-01    rms(broyden)= 0.14842E-01
  rms(prec ) = 0.30252E-01
  weight for this iteration     100.00

 eigenvalues of (default mixing * dielectric matrix)
  average eigenvalue GAMMA=   1.6761
  3.9666  2.5518  2.0414  1.1288  1.1288  1.0522  0.9114  0.6276

 Free energy of the ion-electron system (eV)
  ---------------------------------------------------
  alpha Z        PSCENC =        64.29041902
  Ewald energy   TEWEN  =      8192.04429513
  -1/2 Hartree   DENC   =    -10655.79705336
  -exchange  EXHF       =         0.00000000
  -V(xc)+E(xc)   XCENC  =       275.67154943
  PAW double counting   =     10784.98170807   -10736.52974942
  entropy T*S    EENTRO =         0.00496971
  eigenvalues    EBANDS =     -1129.37797714
  atomic energy  EATOM  =      2949.83092804
  ---------------------------------------------------
  free energy    TOTEN  =      -254.88091052 eV

  energy without entropy =     -254.88588023  energy(sigma->0) =     -254.88256709


--------------------------------------------------------------------------------------------------------




----------------------------------------- Iteration    1(  14)  ---------------------------------------


    POTLOK:  cpu time    1.07: real time    1.07
    SETDIJ:  cpu time    0.05: real time    0.05
     EDDAV:  cpu time   23.38: real time   23.38
       DOS:  cpu time    0.00: real time    0.00
    CHARGE:  cpu time    1.31: real time    1.31
    MIXING:  cpu time    0.03: real time    0.03
    --------------------------------------------
      LOOP:  cpu time   25.85: real time   25.85

 eigenvalue-minimisations  :  2368
 total energy-change (2. order) :-0.1649167E-02  (-0.1966325E-03)
 number of electron     124.0000020 magnetization      -0.0000004
 augmentation part       -0.6810233 magnetization       0.0000013

 DIPCOR: dipole corrections for dipol
 direction  3 min pos   103,
 dipolmoment           0.000000      0.000000      0.117868 electrons x Angstroem
 Tr[quadrupol]     -2547.305978

 energy correction for charged system         0.000000 eV
 dipol+quadrupol energy correction           -0.000712 eV
 added-field ion interaction          2.309556 eV  (added to PSCEN)


 Broyden mixing:
  rms(total) = 0.10905E-01    rms(broyden)= 0.10905E-01
  rms(prec ) = 0.25691E-01
  weight for this iteration     100.00

 eigenvalues of (default mixing * dielectric matrix)
  average eigenvalue GAMMA=   1.6688
  4.2175  2.5923  2.0996  1.3394  1.3394  0.9482  0.9213  0.9213  0.6398

 Free energy of the ion-electron system (eV)
  ---------------------------------------------------
  alpha Z        PSCENC =        66.35484768
  Ewald energy   TEWEN  =      8192.04429513
  -1/2 Hartree   DENC   =    -10658.64964707
  -exchange  EXHF       =         0.00000000
  -V(xc)+E(xc)   XCENC  =       275.69096346
  PAW double counting   =     10783.98897807   -10735.53644746
  entropy T*S    EENTRO =         0.00494895
  eigenvalues    EBANDS =     -1128.61142648
  atomic energy  EATOM  =      2949.83092804
  ---------------------------------------------------
  free energy    TOTEN  =      -254.88255968 eV

  energy without entropy =     -254.88750863  energy(sigma->0) =     -254.88420933


--------------------------------------------------------------------------------------------------------




----------------------------------------- Iteration    1(  15)  ---------------------------------------


    POTLOK:  cpu time    1.07: real time    1.07
    SETDIJ:  cpu time    0.05: real time    0.05
     EDDAV:  cpu time   22.16: real time   22.16
       DOS:  cpu time    0.00: real time    0.00
    CHARGE:  cpu time    1.28: real time    1.28
    MIXING:  cpu time    0.04: real time    0.04
    --------------------------------------------
      LOOP:  cpu time   24.60: real time   24.61

 eigenvalue-minimisations  :  2208
 total energy-change (2. order) :-0.1085726E-02  (-0.8081220E-03)
 number of electron     124.0000020 magnetization      -0.0000057
 augmentation part       -0.6824009 magnetization       0.0000017

 DIPCOR: dipole corrections for dipol
 direction  3 min pos   104,
 dipolmoment           0.000000      0.000000      0.074499 electrons x Angstroem
 Tr[quadrupol]     -2547.666115

 energy correction for charged system         0.000000 eV
 dipol+quadrupol energy correction           -0.000284 eV
 added-field ion interaction          1.544269 eV  (added to PSCEN)


 Broyden mixing:
  rms(total) = 0.82358E-02    rms(broyden)= 0.82357E-02
  rms(prec ) = 0.16686E-01
  weight for this iteration     100.00

 eigenvalues of (default mixing * dielectric matrix)
  average eigenvalue GAMMA=   1.7378
  5.1572  2.6458  2.2797  1.8343  1.1072  1.1072  0.9895  0.8138  0.8138  0.6293

 Free energy of the ion-electron system (eV)
  ---------------------------------------------------
  alpha Z        PSCENC =        65.58998792
  Ewald energy   TEWEN  =      8192.04429513
  -1/2 Hartree   DENC   =    -10661.48254118
  -exchange  EXHF       =         0.00000000
  -V(xc)+E(xc)   XCENC  =       275.68862254
  PAW double counting   =     10784.75161124   -10736.29846452
  entropy T*S    EENTRO =         0.00511794
  eigenvalues    EBANDS =     -1125.01320252
  atomic energy  EATOM  =      2949.83092804
  ---------------------------------------------------
  free energy    TOTEN  =      -254.88364541 eV

  energy without entropy =     -254.88876335  energy(sigma->0) =     -254.88535139


--------------------------------------------------------------------------------------------------------




----------------------------------------- Iteration    1(  16)  ---------------------------------------


    POTLOK:  cpu time    1.06: real time    1.06
    SETDIJ:  cpu time    0.05: real time    0.05
     EDDAV:  cpu time   22.33: real time   22.33
       DOS:  cpu time    0.00: real time    0.00
    CHARGE:  cpu time    1.35: real time    1.35
    MIXING:  cpu time    0.04: real time    0.04
    --------------------------------------------
      LOOP:  cpu time   24.84: real time   24.84

 eigenvalue-minimisations  :  2216
 total energy-change (2. order) :-0.3186527E-02  (-0.7811377E-03)
 number of electron     124.0000020 magnetization      -0.0000049
 augmentation part       -0.6834182 magnetization       0.0000069

 DIPCOR: dipole corrections for dipol
 direction  3 min pos   102,
 dipolmoment           0.000000      0.000000     -0.025149 electrons x Angstroem
 Tr[quadrupol]     -2548.289774

 energy correction for charged system         0.000000 eV
 dipol+quadrupol energy correction           -0.000032 eV
 added-field ion interaction         -0.464252 eV  (added to PSCEN)


 Broyden mixing:
  rms(total) = 0.12878E-01    rms(broyden)= 0.12878E-01
  rms(prec ) = 0.24160E-01
  weight for this iteration     100.00

 eigenvalues of (default mixing * dielectric matrix)
  average eigenvalue GAMMA=   1.6850
  5.3262  2.7139  2.2824  1.9110  0.8362  0.8362  1.0038  1.0038  0.9975  0.9975
  0.6268

 Free energy of the ion-electron system (eV)
  ---------------------------------------------------
  alpha Z        PSCENC =        63.58171890
  Ewald energy   TEWEN  =      8192.04429513
  -1/2 Hartree   DENC   =    -10665.90198387
  -exchange  EXHF       =         0.00000000
  -V(xc)+E(xc)   XCENC  =       275.69989569
  PAW double counting   =     10787.85605741   -10739.40491291
  entropy T*S    EENTRO =         0.00518173
  eigenvalues    EBANDS =     -1118.59801204
  atomic energy  EATOM  =      2949.83092804
  ---------------------------------------------------
  free energy    TOTEN  =      -254.88683194 eV

  energy without entropy =     -254.89201366  energy(sigma->0) =     -254.88855918


--------------------------------------------------------------------------------------------------------




----------------------------------------- Iteration    1(  17)  ---------------------------------------


    POTLOK:  cpu time    1.06: real time    1.06
    SETDIJ:  cpu time    0.05: real time    0.05
     EDDAV:  cpu time   22.50: real time   22.50
       DOS:  cpu time    0.00: real time    0.00
    CHARGE:  cpu time    1.33: real time    1.33
    MIXING:  cpu time    0.05: real time    0.05
    --------------------------------------------
      LOOP:  cpu time   25.00: real time   25.00

 eigenvalue-minimisations  :  2240
 total energy-change (2. order) :-0.2327955E-02  (-0.1969455E-03)
 number of electron     124.0000020 magnetization      -0.0000027
 augmentation part       -0.6829853 magnetization      -0.0000068

 DIPCOR: dipole corrections for dipol
 direction  3 min pos   101,
 dipolmoment           0.000000      0.000000     -0.067435 electrons x Angstroem
 Tr[quadrupol]     -2548.585701

 energy correction for charged system         0.000000 eV
 dipol+quadrupol energy correction           -0.000233 eV
 added-field ion interaction         -1.168401 eV  (added to PSCEN)


 Broyden mixing:
  rms(total) = 0.62452E-02    rms(broyden)= 0.62452E-02
  rms(prec ) = 0.12218E-01
  weight for this iteration     100.00

 eigenvalues of (default mixing * dielectric matrix)
  average eigenvalue GAMMA=   1.8094
  6.0956  3.1292  2.2556  2.1502  1.2095  1.2095  1.3628  0.9667  0.9667  1.0039
  0.7380  0.6252

 Free energy of the ion-electron system (eV)
  ---------------------------------------------------
  alpha Z        PSCENC =        62.87736945
  Ewald energy   TEWEN  =      8192.04429513
  -1/2 Hartree   DENC   =    -10666.69619789
  -exchange  EXHF       =         0.00000000
  -V(xc)+E(xc)   XCENC  =       275.68829631
  PAW double counting   =     10787.32630923   -10738.87709571
  entropy T*S    EENTRO =         0.00513583
  eigenvalues    EBANDS =     -1117.08820028
  atomic energy  EATOM  =      2949.83092804
  ---------------------------------------------------
  free energy    TOTEN  =      -254.88915989 eV

  energy without entropy =     -254.89429572  energy(sigma->0) =     -254.89087183


--------------------------------------------------------------------------------------------------------




----------------------------------------- Iteration    1(  18)  ---------------------------------------


    POTLOK:  cpu time    1.06: real time    1.06
    SETDIJ:  cpu time    0.05: real time    0.05
     EDDAV:  cpu time   22.10: real time   22.10
       DOS:  cpu time    0.00: real time    0.00
    CHARGE:  cpu time    1.32: real time    1.32
    MIXING:  cpu time    0.05: real time    0.05
    --------------------------------------------
      LOOP:  cpu time   24.58: real time   24.59

 eigenvalue-minimisations  :  2192
 total energy-change (2. order) :-0.3798332E-02  (-0.1195964E-03)
 number of electron     124.0000020 magnetization      -0.0000021
 augmentation part       -0.6822751 magnetization       0.0000054

 DIPCOR: dipole corrections for dipol
 direction  3 min pos    99,
 dipolmoment           0.000000      0.000000     -0.121297 electrons x Angstroem
 Tr[quadrupol]     -2548.862450

 energy correction for charged system         0.000000 eV
 dipol+quadrupol energy correction           -0.000754 eV
 added-field ion interaction         -1.826494 eV  (added to PSCEN)


 Broyden mixing:
  rms(total) = 0.32890E-02    rms(broyden)= 0.32890E-02
  rms(prec ) = 0.61463E-02
  weight for this iteration     100.00

 eigenvalues of (default mixing * dielectric matrix)
  average eigenvalue GAMMA=   1.7721
  6.2511  3.1165  2.4496  1.8694  1.6808  1.2580  1.2580  1.0191  1.0191  0.8949
  0.8949  0.7015  0.6245

 Free energy of the ion-electron system (eV)
  ---------------------------------------------------
  alpha Z        PSCENC =        62.21875545
  Ewald energy   TEWEN  =      8192.04429513
  -1/2 Hartree   DENC   =    -10667.21819079
  -exchange  EXHF       =         0.00000000
  -V(xc)+E(xc)   XCENC  =       275.67842643
  PAW double counting   =     10790.18725544   -10741.73742499
  entropy T*S    EENTRO =         0.00511886
  eigenvalues    EBANDS =     -1115.90212179
  atomic energy  EATOM  =      2949.83092804
  ---------------------------------------------------
  free energy    TOTEN  =      -254.89295822 eV

  energy without entropy =     -254.89807708  energy(sigma->0) =     -254.89466451


--------------------------------------------------------------------------------------------------------




----------------------------------------- Iteration    1(  19)  ---------------------------------------


    POTLOK:  cpu time    1.06: real time    1.06
    SETDIJ:  cpu time    0.05: real time    0.05
     EDDAV:  cpu time   20.11: real time   20.11
       DOS:  cpu time    0.00: real time    0.00
    CHARGE:  cpu time    1.30: real time    1.30
    MIXING:  cpu time    0.05: real time    0.05
    --------------------------------------------
      LOOP:  cpu time   22.58: real time   22.58

 eigenvalue-minimisations  :  1936
 total energy-change (2. order) :-0.1930063E-02  (-0.2106640E-04)
 number of electron     124.0000020 magnetization      -0.0000031
 augmentation part       -0.6821493 magnetization      -0.0000041

 DIPCOR: dipole corrections for dipol
 direction  3 min pos    98,
 dipolmoment           0.000000      0.000000     -0.145147 electrons x Angstroem
 Tr[quadrupol]     -2548.964651

 energy correction for charged system         0.000000 eV
 dipol+quadrupol energy correction           -0.001079 eV
 added-field ion interaction         -2.021017 eV  (added to PSCEN)


 Broyden mixing:
  rms(total) = 0.24189E-02    rms(broyden)= 0.24189E-02
  rms(prec ) = 0.43778E-02
  weight for this iteration     100.00

 eigenvalues of (default mixing * dielectric matrix)
  average eigenvalue GAMMA=   1.8701
  6.4297  3.2941  2.6664  2.3975  2.3975  1.2026  1.2026  1.3420  1.1160  0.9575
  0.9575  0.8913  0.6248  0.7016

 Free energy of the ion-electron system (eV)
  ---------------------------------------------------
  alpha Z        PSCENC =        62.02390764
  Ewald energy   TEWEN  =      8192.04429513
  -1/2 Hartree   DENC   =    -10667.31255476
  -exchange  EXHF       =         0.00000000
  -V(xc)+E(xc)   XCENC  =       275.67769209
  PAW double counting   =     10792.14342350   -10743.69363340
  entropy T*S    EENTRO =         0.00510813
  eigenvalues    EBANDS =     -1115.61405466
  atomic energy  EATOM  =      2949.83092804
  ---------------------------------------------------
  free energy    TOTEN  =      -254.89488829 eV

  energy without entropy =     -254.89999642  energy(sigma->0) =     -254.89659100


--------------------------------------------------------------------------------------------------------




----------------------------------------- Iteration    1(  20)  ---------------------------------------


    POTLOK:  cpu time    1.06: real time    1.06
    SETDIJ:  cpu time    0.05: real time    0.05
     EDDAV:  cpu time   20.40: real time   20.41
       DOS:  cpu time    0.00: real time    0.00
    CHARGE:  cpu time    1.33: real time    1.33
    MIXING:  cpu time    0.06: real time    0.06
    --------------------------------------------
      LOOP:  cpu time   22.91: real time   22.91

 eigenvalue-minimisations  :  1968
 total energy-change (2. order) :-0.2956027E-02  (-0.4071011E-04)
 number of electron     124.0000020 magnetization       0.0000009
 augmentation part       -0.6821585 magnetization      -0.0000066

 DIPCOR: dipole corrections for dipol
 direction  3 min pos    97,
 dipolmoment           0.000000      0.000000     -0.182738 electrons x Angstroem
 Tr[quadrupol]     -2549.162288

 energy correction for charged system         0.000000 eV
 dipol+quadrupol energy correction           -0.001710 eV
 added-field ion interaction         -2.337187 eV  (added to PSCEN)


 Broyden mixing:
  rms(total) = 0.12328E-02    rms(broyden)= 0.12328E-02
  rms(prec ) = 0.26810E-02
  weight for this iteration     100.00

 eigenvalues of (default mixing * dielectric matrix)
  average eigenvalue GAMMA=   1.9892
  7.4176  5.0007  2.5833  2.5833  2.0768  1.6682  1.2108  1.2108  1.0206  1.0206
  0.9578  0.9578  0.8118  0.6245  0.6939

 Free energy of the ion-electron system (eV)
  ---------------------------------------------------
  alpha Z        PSCENC =        61.70710582
  Ewald energy   TEWEN  =      8192.04429513
  -1/2 Hartree   DENC   =    -10667.62742582
  -exchange  EXHF       =         0.00000000
  -V(xc)+E(xc)   XCENC  =       275.67387634
  PAW double counting   =     10791.39956542   -10742.94901185
  entropy T*S    EENTRO =         0.00511922
  eigenvalues    EBANDS =     -1114.98229661
  atomic energy  EATOM  =      2949.83092804
  ---------------------------------------------------
  free energy    TOTEN  =      -254.89784431 eV

  energy without entropy =     -254.90296354  energy(sigma->0) =     -254.89955072


--------------------------------------------------------------------------------------------------------




----------------------------------------- Iteration    1(  21)  ---------------------------------------


    POTLOK:  cpu time    1.06: real time    1.06
    SETDIJ:  cpu time    0.05: real time    0.05
     EDDAV:  cpu time   17.94: real time   17.94
       DOS:  cpu time    0.00: real time    0.00
    CHARGE:  cpu time    1.35: real time    1.35
    MIXING:  cpu time    0.06: real time    0.06
    --------------------------------------------
      LOOP:  cpu time   20.47: real time   20.47

 eigenvalue-minimisations  :  1648
 total energy-change (2. order) :-0.5949898E-03  (-0.4168712E-05)
 number of electron     124.0000020 magnetization       0.0000009
 augmentation part       -0.6821513 magnetization       0.0000029

 DIPCOR: dipole corrections for dipol
 direction  3 min pos    96,
 dipolmoment           0.000000      0.000000     -0.192548 electrons x Angstroem
 Tr[quadrupol]     -2549.247693

 energy correction for charged system         0.000000 eV
 dipol+quadrupol energy correction           -0.001899 eV
 added-field ion interaction         -2.244282 eV  (added to PSCEN)


 Broyden mixing:
  rms(total) = 0.10631E-02    rms(broyden)= 0.10631E-02
  rms(prec ) = 0.23242E-02
  weight for this iteration     100.00

 eigenvalues of (default mixing * dielectric matrix)
  average eigenvalue GAMMA=   1.9891
  8.0313  5.2243  2.5796  2.5796  1.9740  1.9740  1.1961  1.1961  1.1554  0.9445
  0.9445  1.0149  1.0149  0.7118  0.6244  0.6607

 Free energy of the ion-electron system (eV)
  ---------------------------------------------------
  alpha Z        PSCENC =        61.79982276
  Ewald energy   TEWEN  =      8192.04429513
  -1/2 Hartree   DENC   =    -10667.68914347
  -exchange  EXHF       =         0.00000000
  -V(xc)+E(xc)   XCENC  =       275.67145492
  PAW double counting   =     10791.35641372   -10742.90512120
  entropy T*S    EENTRO =         0.00512253
  eigenvalues    EBANDS =     -1115.01221174
  atomic energy  EATOM  =      2949.83092804
  ---------------------------------------------------
  free energy    TOTEN  =      -254.89843930 eV

  energy without entropy =     -254.90356184  energy(sigma->0) =     -254.90014681


--------------------------------------------------------------------------------------------------------




----------------------------------------- Iteration    1(  22)  ---------------------------------------


    POTLOK:  cpu time    1.07: real time    1.07
    SETDIJ:  cpu time    0.05: real time    0.05
     EDDAV:  cpu time   16.76: real time   16.76
       DOS:  cpu time    0.00: real time    0.00
    CHARGE:  cpu time    1.35: real time    1.35
    MIXING:  cpu time    0.07: real time    0.07
    --------------------------------------------
      LOOP:  cpu time   19.31: real time   19.31

 eigenvalue-minimisations  :  1488
 total energy-change (2. order) :-0.2145657E-03  (-0.2808363E-05)
 number of electron     124.0000020 magnetization       0.0000013
 augmentation part       -0.6821067 magnetization       0.0000003

 DIPCOR: dipole corrections for dipol
 direction  3 min pos    98,
 dipolmoment           0.000000      0.000000     -0.193301 electrons x Angstroem
 Tr[quadrupol]     -2549.191639

 energy correction for charged system         0.000000 eV
 dipol+quadrupol energy correction           -0.001914 eV
 added-field ion interaction         -2.691509 eV  (added to PSCEN)


 Broyden mixing:
  rms(total) = 0.69812E-03    rms(broyden)= 0.69812E-03
  rms(prec ) = 0.15795E-02
  weight for this iteration     100.00

 eigenvalues of (default mixing * dielectric matrix)
  average eigenvalue GAMMA=   2.0482
  8.6634  5.3849  2.7690  2.4799  2.4799  2.2198  1.2091  1.2091  1.5242  1.0482
  1.0482  0.9514  0.9514  0.9154  0.7062  0.6244  0.6357

 Free energy of the ion-electron system (eV)
  ---------------------------------------------------
  alpha Z        PSCENC =        61.35257999
  Ewald energy   TEWEN  =      8192.04429513
  -1/2 Hartree   DENC   =    -10667.69490627
  -exchange  EXHF       =         0.00000000
  -V(xc)+E(xc)   XCENC  =       275.67135195
  PAW double counting   =     10791.52903789   -10743.07780762
  entropy T*S    EENTRO =         0.00511509
  eigenvalues    EBANDS =     -1114.55924805
  atomic energy  EATOM  =      2949.83092804
  ---------------------------------------------------
  free energy    TOTEN  =      -254.89865387 eV

  energy without entropy =     -254.90376896  energy(sigma->0) =     -254.90035890


--------------------------------------------------------------------------------------------------------




----------------------------------------- Iteration    1(  23)  ---------------------------------------


    POTLOK:  cpu time    1.07: real time    1.07
[...]
      3     -16.8048      1.00000
      4     -16.6879      1.00000
      5     -15.8964      1.00000
      6     -15.7580      1.00000
      7     -15.2167      1.00000
      8     -15.0693      1.00000
      9     -14.5135      1.00000
     10     -13.6177      1.00000
     11     -13.4172      1.00000
     12     -13.2637      1.00000
     13     -13.1616      1.00000
     14     -13.0366      1.00000
     15     -12.8884      1.00000
     16     -12.4492      1.00000
     17     -12.4046      1.00000
     18     -12.1495      1.00000
     19     -12.0779      1.00000
     20     -12.0056      1.00000
     21     -11.2226      1.00000
     22     -10.2159      1.00000
     23      -9.8890      1.00000
     24      -9.7673      1.00000
     25      -9.4037      1.00000
     26      -9.2176      1.00000
     27      -9.1524      1.00000
     28      -8.9739      1.00000
     29      -8.7443      1.00000
     30      -8.6960      1.00000
     31      -8.6778      1.00000
     32      -8.5006      1.00000
     33      -8.3561      1.00000
     34      -8.2152      1.00000
     35      -7.9341      1.00000
     36      -7.6535      1.00000
     37      -7.6084      1.00000
     38      -7.3731      1.00000
     39      -7.3121      1.00000
     40      -7.2286      1.00000
     41      -6.7616      1.00000
     42      -6.4783      1.00000
     43      -6.1473      1.00000
     44      -6.0953      1.00000
     45      -5.8403      1.00000
     46      -5.7194      1.00000
     47      -5.5975      1.00000
     48      -5.4783      1.00000
     49      -5.3267      1.00000
     50      -5.2624      1.00000
     51      -5.1564      1.00000
     52      -5.0404      1.00000
     53      -5.0219      1.00000
     54      -4.6372      1.00000
     55      -4.5179      1.00000
     56      -4.3462      1.00000
     57      -4.1893      1.00000
     58      -4.0780      1.00000
     59      -3.8537      1.00000
     60      -3.7065      1.00000
     61      -3.5722      1.00000
     62      -3.2656      1.03520
     63      -2.9132     -0.00320
     64      -2.5531     -0.00000
     65      -2.3042     -0.00000
     66      -2.0314     -0.00000
     67      -1.3786     -0.00000
     68      -0.8427     -0.00000
     69      -0.6583     -0.00000
     70      -0.4750     -0.00000
     71      -0.0027      0.00000
     72       0.2914      0.00000
     73       0.4668      0.00000
     74       0.8048      0.00000
     75       1.0637      0.00000
     76       1.1423      0.00000
     77       1.2064      0.00000
     78       1.2523      0.00000
     79       1.4019      0.00000
     80       1.4921      0.00000
     81       1.5051      0.00000
     82       1.5943      0.00000
     83       1.6238      0.00000


--------------------------------------------------------------------------------------------------------


 soft charge-density along one line, spin component           1
         0         1         2         3         4         5         6         7         8         9
 total charge-density along one line
 
 soft charge-density along one line, spin component           2
         0         1         2         3         4         5         6         7         8         9
 total charge-density along one line
 
 pseudopotential strength for first ion, spin component:           1
  6.742  10.287   0.000  -0.000   0.013   0.000  -0.000   0.020
 10.287  15.694   0.000  -0.000   0.019   0.000  -0.001   0.030
  0.000   0.000  -2.321   0.000  -0.000  -3.985   0.000  -0.000
 -0.000  -0.000   0.000  -2.325   0.000   0.000  -3.990   0.000
  0.013   0.019  -0.000   0.000  -2.325  -0.000   0.000  -3.993
  0.000   0.000  -3.985   0.000  -0.000  -6.644   0.000  -0.000
 -0.000  -0.001   0.000  -3.990   0.000   0.000  -6.650   0.001
  0.020   0.030  -0.000   0.000  -3.993  -0.000   0.001  -6.660
 pseudopotential strength for first ion, spin component:           2
  6.742  10.287   0.000  -0.000   0.013   0.000  -0.000   0.020
 10.287  15.694   0.000  -0.000   0.019   0.000  -0.001   0.030
  0.000   0.000  -2.321   0.000  -0.000  -3.985   0.000  -0.000
 -0.000  -0.000   0.000  -2.325   0.000   0.000  -3.990   0.000
  0.013   0.019  -0.000   0.000  -2.325  -0.000   0.000  -3.993
  0.000   0.000  -3.985   0.000  -0.000  -6.644   0.000  -0.000
 -0.000  -0.001   0.000  -3.990   0.000   0.000  -6.650   0.001
  0.020   0.030  -0.000   0.000  -3.993  -0.000   0.001  -6.660
 total augmentation occupancy for first ion, spin component:           1
  3.443  -0.863  -0.001   0.003   0.326   0.000  -0.000  -0.175
 -0.863   0.233  -0.001   0.001  -0.227   0.000  -0.000   0.085
 -0.001  -0.001   3.267   0.052  -0.007  -0.813  -0.015   0.001
  0.003   0.001   0.052   1.357   0.002  -0.015  -0.296   0.002
  0.326  -0.227  -0.007   0.002   3.989   0.001   0.002  -1.087
  0.000   0.000  -0.813  -0.015   0.001   0.209   0.004  -0.000
 -0.000  -0.000  -0.015  -0.296   0.002   0.004   0.066  -0.001
 -0.175   0.085   0.001   0.002  -1.087  -0.000  -0.001   0.305
 total augmentation occupancy for first ion, spin component:           2
 -0.000   0.000   0.000   0.000   0.000  -0.000  -0.000  -0.000
  0.000  -0.000  -0.000  -0.000  -0.000   0.000   0.000   0.000
  0.000  -0.000   0.000  -0.000  -0.000  -0.000   0.000  -0.000
  0.000  -0.000  -0.000  -0.000   0.000   0.000   0.000  -0.000
  0.000  -0.000  -0.000   0.000  -0.000   0.000  -0.000  -0.000
 -0.000   0.000  -0.000   0.000   0.000   0.000  -0.000   0.000
 -0.000   0.000   0.000   0.000  -0.000  -0.000  -0.000   0.000
 -0.000   0.000  -0.000  -0.000  -0.000   0.000   0.000   0.000


------------------------ aborting loop because EDIFF is reached ----------------------------------------


    CHARGE:  cpu time    1.33: real time    1.33
    FORLOC:  cpu time    0.14: real time    0.14
    FORNL :  cpu time    4.83: real time    4.83
    STRESS:  cpu time   14.70: real time   14.70
    FORCOR:  cpu time    1.17: real time    1.17
    FORHAR:  cpu time    0.23: real time    0.23
    MIXING:  cpu time    0.02: real time    0.02

  FORCE on cell =-STRESS in cart. coord.  units (eV):
  Direction    XX          YY          ZZ          XY          YZ          ZX
  --------------------------------------------------------------------------------------
  Alpha Z    64.04600    64.04600    64.04600
  Ewald   11154.18755 11277.58928-14114.57475     0.00000     0.00000    -0.27972
  Hartree 10630.49592 10700.19875-10555.80057     0.00000    -0.00000    -0.08754
  E(xc)    -391.91543  -391.97296  -403.40072     0.00000     0.00000    -0.00059
  Local  -22733.71739-22924.95285 23568.78743     0.00000    -0.00000     0.34009
  n-local    -1.13662     3.73139     8.13441    -0.00000     0.00040     0.01115
  augment    -3.77525    -3.69639    -3.26310     0.00000     0.00000    -0.00010
  Kinetic  1279.22967  1266.34450  1435.89795     0.00000     0.00007     0.02730
  Fock        0.00000     0.00000     0.00000     0.00000     0.00000     0.00000
  -------------------------------------------------------------------------------------
  Total      -2.58553    -8.71228    -0.17333     0.00000     0.00000     0.01059
  in kB      -2.31136    -7.78844    -0.15495     0.00000     0.00000     0.00946
  external pressure =       -3.42 kB  Pullay stress =        0.00 kB


 VOLUME and BASIS-vectors are now :
 -----------------------------------------------------------------------------
  energy-cutoff  :      500.00
  volume of cell :     1792.22
      direct lattice vectors                 reciprocal lattice vectors
    10.160000000  0.000000000  0.000000000     0.098425197  0.000000000  0.000000000
     0.000000000 11.760000000  0.000000000     0.000000000  0.085034014  0.000000000
     0.000000000  0.000000000 15.000000000     0.000000000  0.000000000  0.066666667

  length of vectors
    10.160000000 11.760000000 15.000000000     0.098425197  0.085034014  0.066666667


 FORCES acting on ions
    electron-ion (+dipol)            ewald-force                    non-local-force                 convergence-correction
 -----------------------------------------------------------------------------------------------
   0.332E+02 0.262E+01 0.304E+01   -.381E+02 -.269E+01 -.294E+01   0.489E+01 0.723E-01 -.111E+00   0.937E-03 0.329E-02 0.470E-02
   0.574E+01 0.445E+01 0.137E+02   -.631E+01 -.466E+01 -.140E+02   0.562E+00 0.207E+00 0.218E+00   -.105E-02 0.188E-02 0.411E-02
   -.168E+02 0.200E+02 0.279E+02   0.205E+02 -.215E+02 -.296E+02   -.365E+01 0.150E+01 0.166E+01   -.898E-03 0.204E-02 0.289E-02
   0.355E+02 0.165E-15 -.929E+01   -.404E+02 -.266E-14 0.937E+01   0.492E+01 0.000E+00 -.901E-01   -.220E-02 -.543E-13 0.599E-02
   -.620E+01 0.245E-13 0.288E+02   0.901E+01 -.151E-13 -.303E+02   -.281E+01 0.000E+00 0.150E+01   0.779E-03 -.547E-13 0.557E-02
   0.332E+02 -.262E+01 0.304E+01   -.381E+02 0.269E+01 -.294E+01   0.489E+01 -.723E-01 -.111E+00   0.937E-03 -.329E-02 0.470E-02
   0.574E+01 -.445E+01 0.137E+02   -.631E+01 0.466E+01 -.140E+02   0.562E+00 -.207E+00 0.218E+00   -.105E-02 -.188E-02 0.411E-02
   -.168E+02 -.200E+02 0.279E+02   0.205E+02 0.215E+02 -.296E+02   -.365E+01 -.150E+01 0.166E+01   -.898E-03 -.204E-02 0.289E-02
   0.335E+02 -.642E+01 0.738E+01   -.380E+02 0.643E+01 -.736E+01   0.445E+01 -.154E-01 -.193E-01   -.224E-04 0.259E-02 -.127E-03
   -.257E+02 -.774E+01 -.358E+01   0.299E+02 0.814E+01 0.383E+01   -.423E+01 -.407E+00 -.247E+00   -.788E-03 0.150E-03 -.686E-03
   0.293E+02 -.734E+00 0.922E+01   -.341E+02 0.907E+00 -.927E+01   0.483E+01 -.176E+00 0.615E-01   0.399E-02 0.208E-02 -.413E-02
   0.192E+01 -.236E+01 0.609E+00   -.192E+01 0.249E+01 -.617E+00   0.460E-02 -.130E+00 0.183E-01   -.293E-02 0.247E-02 -.398E-02
   -.275E+02 -.423E+01 -.576E+01   0.324E+02 0.433E+01 0.575E+01   -.487E+01 -.100E+00 0.127E-01   -.837E-03 0.340E-02 -.187E-02
   0.303E+02 0.204E-13 0.221E+01   -.347E+02 0.281E-13 -.243E+01   0.447E+01 0.000E+00 0.241E+00   0.191E-05 0.603E-13 -.571E-02
   -.289E+02 0.333E-13 -.569E+01   0.333E+02 0.116E-13 0.596E+01   -.441E+01 0.000E+00 -.269E+00   0.368E-03 0.106E-12 -.343E-02
   0.293E+02 0.734E+00 0.922E+01   -.341E+02 -.907E+00 -.927E+01   0.483E+01 0.176E+00 0.615E-01   0.399E-02 -.208E-02 -.413E-02
   0.192E+01 0.236E+01 0.609E+00   -.192E+01 -.249E+01 -.617E+00   0.460E-02 0.130E+00 0.183E-01   -.293E-02 -.247E-02 -.398E-02
   -.275E+02 0.423E+01 -.576E+01   0.324E+02 -.433E+01 0.575E+01   -.487E+01 0.100E+00 0.127E-01   -.837E-03 -.340E-02 -.187E-02
   0.335E+02 0.642E+01 0.738E+01   -.380E+02 -.643E+01 -.736E+01   0.445E+01 0.154E-01 -.193E-01   -.224E-04 -.259E-02 -.127E-03
   -.257E+02 0.774E+01 -.358E+01   0.299E+02 -.814E+01 0.383E+01   -.423E+01 0.407E+00 -.247E+00   -.788E-03 -.150E-03 -.686E-03
   0.168E+02 0.200E+02 0.278E+02   -.204E+02 -.215E+02 -.295E+02   0.365E+01 0.151E+01 0.166E+01   0.852E-03 0.261E-02 0.260E-02
   -.573E+01 0.446E+01 0.137E+02   0.629E+01 -.466E+01 -.139E+02   -.565E+00 0.203E+00 0.214E+00   0.171E-02 0.282E-02 0.316E-02
   -.331E+02 0.262E+01 0.307E+01   0.380E+02 -.270E+01 -.297E+01   -.489E+01 0.761E-01 -.110E+00   -.147E-02 0.111E-02 0.425E-02
   0.620E+01 0.115E-12 0.289E+02   -.901E+01 0.481E-11 -.304E+02   0.281E+01 0.000E+00 0.151E+01   -.448E-03 -.408E-12 0.434E-02
   -.355E+02 0.684E-13 -.922E+01   0.404E+02 0.195E-13 0.930E+01   -.492E+01 0.000E+00 -.896E-01   -.133E-03 -.255E-12 0.514E-02
   0.168E+02 -.200E+02 0.278E+02   -.204E+02 0.215E+02 -.295E+02   0.365E+01 -.151E+01 0.166E+01   0.852E-03 -.261E-02 0.260E-02
   -.573E+01 -.446E+01 0.137E+02   0.629E+01 0.466E+01 -.139E+02   -.565E+00 -.203E+00 0.214E+00   0.171E-02 -.282E-02 0.316E-02
   -.331E+02 -.262E+01 0.307E+01   0.380E+02 0.270E+01 -.297E+01   -.489E+01 -.761E-01 -.110E+00   -.147E-02 -.111E-02 0.425E-02
   0.257E+02 -.773E+01 -.343E+01   -.299E+02 0.813E+01 0.368E+01   0.423E+01 -.401E+00 -.251E+00   -.715E-03 0.286E-02 -.824E-03
   -.335E+02 -.642E+01 0.786E+01   0.380E+02 0.644E+01 -.784E+01   -.445E+01 -.186E-01 -.190E-01   0.831E-03 -.259E-03 -.894E-03
   0.275E+02 -.421E+01 -.594E+01   -.324E+02 0.431E+01 0.591E+01   0.487E+01 -.103E+00 0.234E-01   0.257E-02 0.133E-02 -.197E-02
   -.194E+01 -.234E+01 0.345E+00   0.195E+01 0.247E+01 -.354E+00   -.600E-02 -.132E+00 0.175E-01   -.112E-02 0.215E-02 -.398E-02
   -.293E+02 -.752E+00 0.933E+01   0.341E+02 0.924E+00 -.938E+01   -.483E+01 -.175E+00 0.626E-01   -.164E-02 0.238E-02 -.443E-02
   0.289E+02 -.366E-13 -.646E+01   -.333E+02 0.161E-14 0.672E+01   0.440E+01 0.000E+00 -.257E+00   0.181E-03 -.208E-12 -.336E-02
   -.303E+02 0.654E-13 0.163E+01   0.348E+02 0.727E-14 -.187E+01   -.446E+01 0.000E+00 0.253E+00   -.461E-03 -.106E-12 -.551E-02
   0.275E+02 0.421E+01 -.594E+01   -.324E+02 -.431E+01 0.591E+01   0.487E+01 0.103E+00 0.234E-01   0.257E-02 -.133E-02 -.197E-02
   -.194E+01 0.234E+01 0.345E+00   0.195E+01 -.247E+01 -.354E+00   -.600E-02 0.132E+00 0.175E-01   -.112E-02 -.215E-02 -.398E-02
   -.293E+02 0.752E+00 0.933E+01   0.341E+02 -.924E+00 -.938E+01   -.483E+01 0.175E+00 0.626E-01   -.164E-02 -.238E-02 -.443E-02
   0.257E+02 0.773E+01 -.343E+01   -.299E+02 -.813E+01 0.368E+01   0.423E+01 0.401E+00 -.251E+00   -.715E-03 -.286E-02 -.824E-03
   -.335E+02 0.642E+01 0.786E+01   0.380E+02 -.644E+01 -.784E+01   -.445E+01 0.186E-01 -.190E-01   0.831E-03 0.259E-03 -.894E-03
   -.162E-01 0.298E-12 -.242E+03   0.162E-01 -.115E-13 0.251E+03   0.317E-02 0.000E+00 -.822E+01   -.932E-04 -.148E-12 -.724E-03
 -----------------------------------------------------------------------------------------------
   -.241E-02 -.644E-13 -.933E+00   0.599E-13 -.265E-14 -.568E-13   0.212E-01 0.173E-15 0.946E+00   -.318E-02 -.534E-13 -.535E-04
 
 
 POSITION                                       TOTAL-FORCE (eV/Angst)
 -----------------------------------------------------------------------------------
     -0.01766      0.00315      0.00819         0.001077      0.000186     -0.005226
      1.66516     -0.00729     -0.02268        -0.005309      0.002051     -0.004337
      3.40602     -0.00195     -0.03750         0.004136     -0.000451     -0.000054
      0.81616      1.47000      0.06532         0.001229      0.000000     -0.006105
      2.58119      1.47000     -0.03868        -0.001757      0.000000     -0.007993
     -0.01766      2.93685      0.00819         0.001077     -0.000186     -0.005226
      1.66516      2.94729     -0.02268        -0.005309     -0.002051     -0.004337
      3.40602      2.94195     -0.03750         0.004136      0.000451     -0.000054
      0.82044      4.40456     -0.01321         0.001189      0.002323      0.000691
      2.56293      4.41001      0.05490        -0.002473     -0.000286      0.005538
     10.14120      5.88675     -0.03422         0.003494     -0.001146      0.000843
      1.69376      5.88358      0.03076        -0.000114      0.003435      0.005665
      3.40621      5.87874      0.08566         0.001969      0.000976     -0.002501
      0.81818      7.35000      0.00896        -0.001219      0.000000      0.008544
      2.56886      7.35000      0.07526         0.000176      0.000000      0.000690
     10.14120      8.81325     -0.03422         0.003494      0.001146      0.000843
      1.69376      8.81642      0.03076        -0.000114     -0.003435      0.005665
      3.40621      8.82126      0.08566         0.001969     -0.000976     -0.002501
      0.82044     10.29544     -0.01321         0.001189     -0.002323      0.000691
      2.56293     10.28999      0.05490        -0.002473      0.000286      0.005538
      5.06040     -0.00182     -0.03712        -0.001417     -0.000007     -0.001730
      6.80193     -0.00685     -0.02266         0.000258     -0.003356     -0.002601
      8.48506      0.00312      0.00784         0.002406      0.000970     -0.004215
      5.88554      1.47000     -0.03905         0.000551      0.000000     -0.003764
      7.65098      1.47000      0.06481        -0.000919      0.000000     -0.004483
      5.06040      2.94182     -0.03712        -0.001417      0.000007     -0.001730
      6.80193      2.94685     -0.02266         0.000258      0.003356     -0.002601
      8.48506      2.93688      0.00784         0.002406     -0.000970     -0.004215
      5.90395      4.40969      0.05447         0.002355      0.001106      0.005085
      7.64618      4.40425     -0.01521        -0.002840      0.001031      0.001613
      5.06047      5.87862      0.08706        -0.001761      0.000955     -0.003126
      6.77251      5.88355      0.03278        -0.002073      0.001188      0.004155
      8.48496      5.88642     -0.03425        -0.001355     -0.001019      0.002932
      5.89786      7.35000      0.07997        -0.002236      0.000000      0.000884
      7.64827      7.35000      0.01259         0.002406      0.000000      0.006926
      5.06047      8.82138      0.08706        -0.001761     -0.000955     -0.003126
      6.77251      8.81645      0.03278        -0.002073     -0.001188      0.004155
      8.48496      8.81358     -0.03425        -0.001355      0.001019      0.002932
      5.90395     10.29031      0.05447         0.002355     -0.001106      0.005085
      7.64618     10.29575     -0.01521        -0.002840     -0.001031      0.001613
      4.23314      1.47000      1.48114         0.002682      0.000000     -0.000164
 -----------------------------------------------------------------------------------
    total drift:                                0.015643     -0.000000      0.012734


--------------------------------------------------------------------------------------------------------



  FREE ENERGIE OF THE ION-ELECTRON SYSTEM (eV)
  ---------------------------------------------------
  free  energy   TOTEN  =      -255.75970164 eV

  energy  without entropy=     -255.76235503  energy(sigma->0) =     -255.76058611
 
 d Force = 0.5509943E-04[ 0.379E-04, 0.723E-04]  d Energy = 0.5473176E-04 0.368E-06
 d Force = 0.1229268E+00[ 0.123E+00, 0.123E+00]  d Ewald  = 0.1229268E+00 0.520E-08


--------------------------------------------------------------------------------------------------------


    POTLOK:  cpu time    1.12: real time    1.12


--------------------------------------------------------------------------------------------------------


 Conjugate gradient step on ions:
 trial-energy change:   -0.000055  1 .order   -0.000055   -0.000072   -0.000038
  (g-gl).g = 0.944E-04      g.g   = 0.114E-03  gl.gl    = 0.293E-03
 g(Force)  = 0.114E-03   g(Stress)= 0.000E+00 ortho     = 0.141E-04
 gamma     =   0.32267
 trial     =   0.61069
 opt step  =   1.28076  (harmonic =   1.28076) maximal distance =0.00083645
 next E    =  -255.759723   (d E  =  -0.00008)


--------------------------------------------------------------------------------------------------------


  
 reached required accuracy - stopping structural energy minimisation
     LOOP+:  cpu time   60.94: real time   61.19
    4ORBIT:  cpu time    0.00: real time    0.00

 total amount of memory used by VASP on root node   291795. kBytes
========================================================================

   base      :      30000. kBytes
   nonlr-proj:       1619. kBytes
   fftplans  :      22742. kBytes
   grid      :      54677. kBytes
   one-center:         67. kBytes
   wavefun   :     182690. kBytes
 
  
  
 General timing and accounting informations for this job:
 ========================================================
  
                  Total CPU time used (sec):     6394.129
                            User time (sec):     6372.767
                          System time (sec):       21.362
                         Elapsed time (sec):     6401.090
  
                   Maximum memory used (kb):      654968.
                   Average memory used (kb):           0.
  
                          Minor page faults:     13073762
                          Major page faults:            2
                 Voluntary context switches:         7206
