Warning: no access to tty (Bad file descriptor).
Thus no job control in this shell.
stty: standard input: Inappropriate ioctl for device
 running on    4 total cores
 distrk:  each k-point on    4 cores,    1 groups
 distr:  one band on    4 cores,    1 groups
 using from now: INCAR     
 vasp.5.3.3 18Dez12 (build Aug 26 2015 16:06:49) complex                        
  
 POSCAR found :  2 types and      41 ions
 scaLAPACK will be used
 LDA part: xc-table for Pade appr. of Perdew
 POSCAR, INCAR and KPOINTS ok, starting setup
 WARNING: small aliasing (wrap around) errors must be expected
 FFT: planning ...
 WAVECAR not read
 entering main loop
       N       E                     dE             d eps       ncg     rms          rms(c)
DAV:   1     0.882928700550E+03    0.88293E+03   -0.40864E+04  2056   0.105E+03
DAV:   2    -0.144341179645E+03   -0.10273E+04   -0.99028E+03  2880   0.237E+02
DAV:   3    -0.279486742959E+03   -0.13515E+03   -0.13363E+03  2328   0.951E+01
DAV:   4    -0.284000710972E+03   -0.45140E+01   -0.44821E+01  2744   0.179E+01
DAV:   5    -0.284141873716E+03   -0.14116E+00   -0.14074E+00  2816   0.269E+00    0.223E+01
DAV:   6    -0.263548163255E+03    0.20594E+02   -0.20417E+01  2464   0.110E+01    0.129E+01
DAV:   7    -0.255656629521E+03    0.78915E+01   -0.17768E+01  2368   0.106E+01    0.337E+00
DAV:   8    -0.255165033466E+03    0.49160E+00   -0.12761E+00  2544   0.343E+00    0.165E+00
DAV:   9    -0.254998417882E+03    0.16662E+00   -0.36107E-01  2392   0.147E+00    0.907E-01
DAV:  10    -0.254916019129E+03    0.82399E-01   -0.63621E-02  2368   0.641E-01    0.341E-01
DAV:  11    -0.254876904727E+03    0.39114E-01   -0.36668E-02  2368   0.440E-01    0.266E-01
DAV:  12    -0.254877992903E+03   -0.10882E-02   -0.10475E-02  2368   0.257E-01    0.149E-01
DAV:  13    -0.254880910517E+03   -0.29176E-02   -0.18998E-02  2344   0.309E-01    0.148E-01
DAV:  14    -0.254882559683E+03   -0.16492E-02   -0.19663E-03  2368   0.104E-01    0.109E-01
DAV:  15    -0.254883645409E+03   -0.10857E-02   -0.80812E-03  2208   0.249E-01    0.824E-02
DAV:  16    -0.254886831936E+03   -0.31865E-02   -0.78114E-03  2216   0.211E-01    0.129E-01
DAV:  17    -0.254889159891E+03   -0.23280E-02   -0.19695E-03  2240   0.134E-01    0.625E-02
DAV:  18    -0.254892958223E+03   -0.37983E-02   -0.11960E-03  2192   0.814E-02    0.329E-02
DAV:  19    -0.254894888286E+03   -0.19301E-02   -0.21066E-04  1936   0.368E-02    0.242E-02
DAV:  20    -0.254897844313E+03   -0.29560E-02   -0.40710E-04  1968   0.351E-02    0.123E-02
DAV:  21    -0.254898439303E+03   -0.59499E-03   -0.41687E-05  1648   0.145E-02    0.106E-02
DAV:  22    -0.254898653868E+03   -0.21457E-03   -0.28084E-05  1488   0.116E-02    0.698E-03
DAV:  23    -0.254898844091E+03   -0.19022E-03   -0.42876E-05  1536   0.125E-02    0.329E-03
DAV:  24    -0.254898874903E+03   -0.30812E-04   -0.19316E-05  1584   0.990E-03
   1 F= -.25489887E+03 E0= -.25490058E+03  d E =-.254899E+03  mag=     0.0000
 curvature:   0.00 expect dE= 0.000E+00 dE for cont linesearch  0.000E+00
 trial: gam= 0.00000 g(F)=  0.669E+00 g(S)=  0.000E+00 ort = 0.000E+00 (trialstep = 0.100E+01)
 search vector abs. value=  0.669E+00
 bond charge predicted
       N       E                     dE             d eps       ncg     rms          rms(c)
DAV:   1    -0.255298315523E+03   -0.39947E+00   -0.23119E+01  2001   0.152E+01    0.170E+00
DAV:   2    -0.255262643817E+03    0.35672E-01   -0.92081E-01  2448   0.312E+00    0.824E-01
DAV:   3    -0.255243366102E+03    0.19278E-01   -0.91357E-02  2544   0.920E-01    0.347E-01
DAV:   4    -0.255241895460E+03    0.14706E-02   -0.15188E-02  2432   0.369E-01    0.132E-01
DAV:   5    -0.255242177622E+03   -0.28216E-03   -0.13759E-03  2520   0.115E-01    0.474E-02
DAV:   6    -0.255242468809E+03   -0.29119E-03   -0.22380E-04  1920   0.458E-02    0.180E-02
DAV:   7    -0.255242721504E+03   -0.25269E-03   -0.57244E-05  1648   0.201E-02    0.815E-03
DAV:   8    -0.255242926370E+03   -0.20487E-03   -0.35321E-05  1640   0.123E-02    0.620E-03
DAV:   9    -0.255243129083E+03   -0.20271E-03   -0.34875E-05  1632   0.107E-02    0.369E-03
DAV:  10    -0.255243268590E+03   -0.13951E-03   -0.36921E-05  1680   0.814E-03    0.218E-03
DAV:  11    -0.255243320566E+03   -0.51976E-04   -0.79964E-06  1576   0.513E-03
   2 F= -.25524332E+03 E0= -.25524496E+03  d E =-.344446E+00  mag=    -0.0000
 trial-energy change:   -0.344446  1 .order   -0.337525   -0.669435   -0.005615
 step:   1.0080(harm=  1.0085)  dis= 0.03295  next Energy=  -255.243343 (dE=-0.344E+00)
 bond charge predicted
       N       E                     dE             d eps       ncg     rms          rms(c)
DAV:   1    -0.255243371688E+03   -0.10310E-03   -0.14999E-03  2192   0.122E-01    0.132E-02
DAV:   2    -0.255243373209E+03   -0.15209E-05   -0.54201E-05  1568   0.253E-02
   3 F= -.25524337E+03 E0= -.25524501E+03  d E =-.344498E+00  mag=    -0.0000
 curvature:  -0.50 expect dE=-0.351E+00 dE for cont linesearch -0.931E-07
 trial: gam= 1.04304 g(F)=  0.699E+00 g(S)=  0.000E+00 ort = 0.352E-03 (trialstep = 0.470E+00)
 search vector abs. value=  0.143E+01
 bond charge predicted
       N       E                     dE             d eps       ncg     rms          rms(c)
DAV:   1    -0.255500561847E+03   -0.25719E+00   -0.54501E+00  2038   0.675E+00    0.773E-01
DAV:   2    -0.255502179761E+03   -0.16179E-02   -0.23187E-01  2544   0.142E+00    0.386E-01
DAV:   3    -0.255500584085E+03    0.15957E-02   -0.15802E-02  2672   0.382E-01    0.233E-01
DAV:   4    -0.255500577002E+03    0.70831E-05   -0.22347E-03  2416   0.141E-01    0.123E-01
DAV:   5    -0.255500730142E+03   -0.15314E-03   -0.23673E-04  1960   0.478E-02    0.306E-02
DAV:   6    -0.255500851545E+03   -0.12140E-03   -0.50987E-05  1584   0.237E-02    0.106E-02
DAV:   7    -0.255500970083E+03   -0.11854E-03   -0.30695E-05  1584   0.150E-02    0.483E-03
DAV:   8    -0.255501080302E+03   -0.11022E-03   -0.25968E-05  1576   0.180E-02    0.377E-03
DAV:   9    -0.255501143193E+03   -0.62890E-04   -0.22782E-05  1560   0.173E-02
   4 F= -.25550114E+03 E0= -.25550223E+03  d E =-.257770E+00  mag=     0.0000
 trial-energy change:   -0.257770  1 .order   -0.256431   -0.328275   -0.184587
 step:   1.0083(harm=  1.0730)  dis= 0.03266  next Energy=  -255.609023 (dE=-0.366E+00)
 bond charge predicted
       N       E                     dE             d eps       ncg     rms          rms(c)
DAV:   1    -0.255602667074E+03   -0.10159E+00   -0.74576E+00  2016   0.791E+00    0.992E-01
DAV:   2    -0.255606187421E+03   -0.35203E-02   -0.33421E-01  2512   0.171E+00    0.467E-01
DAV:   3    -0.255604178404E+03    0.20090E-02   -0.22685E-02  2672   0.454E-01    0.288E-01
DAV:   4    -0.255604191320E+03   -0.12916E-04   -0.31387E-03  2512   0.166E-01    0.163E-01
DAV:   5    -0.255604388826E+03   -0.19751E-03   -0.33669E-04  2336   0.550E-02    0.377E-02
DAV:   6    -0.255604496874E+03   -0.10805E-03   -0.72241E-05  1616   0.307E-02    0.140E-02
DAV:   7    -0.255604610666E+03   -0.11379E-03   -0.39227E-05  1560   0.221E-02    0.579E-03
DAV:   8    -0.255604698247E+03   -0.87582E-04   -0.38105E-05  1584   0.283E-02
   5 F= -.25560470E+03 E0= -.25560620E+03  d E =-.361325E+00  mag=    -0.0000
 curvature:  -1.08 expect dE=-0.331E+00 dE for cont linesearch -0.174E-03
 trial: gam= 0.24361 g(F)=  0.305E+00 g(S)=  0.000E+00 ort =-0.151E-01 (trialstep = 0.577E+00)
 search vector abs. value=  0.383E+00
 bond charge predicted
       N       E                     dE             d eps       ncg     rms          rms(c)
DAV:   1    -0.255725727230E+03   -0.12112E+00   -0.52407E+00  2061   0.757E+00    0.753E-01
DAV:   2    -0.255711555139E+03    0.14172E-01   -0.15531E-01  2448   0.131E+00    0.394E-01
DAV:   3    -0.255707596845E+03    0.39583E-02   -0.20221E-02  2416   0.446E-01    0.168E-01
DAV:   4    -0.255707260858E+03    0.33599E-03   -0.39240E-03  2416   0.195E-01    0.615E-02
DAV:   5    -0.255707279632E+03   -0.18774E-04   -0.38220E-04  1920   0.769E-02
   6 F= -.25570728E+03 E0= -.25570910E+03  d E =-.102581E+00  mag=     0.0000
 trial-energy change:   -0.102581  1 .order   -0.102517   -0.174142   -0.030892
 step:   0.7019(harm=  0.7019)  dis= 0.03281  next Energy=  -255.710546 (dE=-0.106E+00)
 bond charge predicted
       N       E                     dE             d eps       ncg     rms          rms(c)
DAV:   1    -0.255711662889E+03   -0.44020E-02   -0.24483E-01  2088   0.164E+00    0.164E-01
DAV:   2    -0.255710950806E+03    0.71208E-03   -0.74691E-03  2432   0.293E-01    0.867E-02
DAV:   3    -0.255710785129E+03    0.16568E-03   -0.10546E-03  2320   0.113E-01    0.384E-02
DAV:   4    -0.255710801978E+03   -0.16850E-04   -0.29185E-04  1920   0.796E-02
   7 F= -.25571080E+03 E0= -.25571273E+03  d E =-.106104E+00  mag=     0.0000
 curvature:  -0.45 expect dE=-0.181E-01 dE for cont linesearch -0.402E-05
 trial: gam= 0.12130 g(F)=  0.407E-01 g(S)=  0.000E+00 ort = 0.186E-02 (trialstep = 0.602E+00)
 search vector abs. value=  0.468E-01
 bond charge predicted
       N       E                     dE             d eps       ncg     rms          rms(c)
DAV:   1    -0.255725884085E+03   -0.15099E-01   -0.73873E-01  2016   0.297E+00    0.258E-01
DAV:   2    -0.255725149446E+03    0.73464E-03   -0.19314E-02  2448   0.489E-01    0.145E-01
DAV:   3    -0.255724674778E+03    0.47467E-03   -0.33697E-03  2285   0.196E-01    0.535E-02
DAV:   4    -0.255724692212E+03   -0.17434E-04   -0.69003E-04  2122   0.123E-01
   8 F= -.25572469E+03 E0= -.25572660E+03  d E =-.138902E-01  mag=     0.0000
 trial-energy change:   -0.013890  1 .order   -0.013852   -0.024631   -0.003073
 step:   0.6882(harm=  0.6882)  dis= 0.00985  next Energy=  -255.724873 (dE=-0.141E-01)
 bond charge predicted
       N       E                     dE             d eps       ncg     rms          rms(c)
DAV:   1    -0.255724940666E+03   -0.26589E-03   -0.14652E-02  2040   0.434E-01    0.375E-02
DAV:   2    -0.255724852069E+03    0.88597E-04   -0.59688E-04  1960   0.120E-01
   9 F= -.25572485E+03 E0= -.25572674E+03  d E =-.140501E-01  mag=     0.0000
 curvature:  -0.39 expect dE=-0.382E-02 dE for cont linesearch -0.214E-06
 trial: gam= 0.24967 g(F)=  0.972E-02 g(S)=  0.000E+00 ort =-0.159E-03 (trialstep = 0.619E+00)
 search vector abs. value=  0.126E-01
 bond charge predicted
       N       E                     dE             d eps       ncg     rms          rms(c)
DAV:   1    -0.255729649215E+03   -0.47085E-02   -0.18439E-01  2016   0.147E+00    0.115E-01
DAV:   2    -0.255729559174E+03    0.90041E-04   -0.37190E-03  2402   0.225E-01    0.688E-02
DAV:   3    -0.255729563594E+03   -0.44203E-05   -0.75187E-04  2128   0.122E-01
  10 F= -.25572956E+03 E0= -.25573125E+03  d E =-.471153E-02  mag=    -0.0000
 trial-energy change:   -0.004712  1 .order   -0.004608   -0.005998   -0.003217
 step:   1.3361(harm=  1.3361)  dis= 0.00884  next Energy=  -255.731321 (dE=-0.647E-02)
 bond charge predicted
       N       E                     dE             d eps       ncg     rms          rms(c)
DAV:   1    -0.255731751162E+03   -0.21920E-02   -0.24726E-01  2016   0.170E+00    0.138E-01
DAV:   2    -0.255731596668E+03    0.15449E-03   -0.49090E-03  2386   0.263E-01    0.828E-02
DAV:   3    -0.255731625770E+03   -0.29101E-04   -0.10976E-03  2148   0.149E-01    0.298E-02
DAV:   4    -0.255731689839E+03   -0.64069E-04   -0.76432E-04  1958   0.156E-01
  11 F= -.25573169E+03 E0= -.25573313E+03  d E =-.683777E-02  mag=    -0.0000
 curvature:  -0.87 expect dE=-0.922E-02 dE for cont linesearch -0.444E-05
 trial: gam= 1.05842 g(F)=  0.106E-01 g(S)=  0.000E+00 ort = 0.254E-03 (trialstep = 0.379E+00)
 search vector abs. value=  0.252E-01
 bond charge predicted
       N       E                     dE             d eps       ncg     rms          rms(c)
DAV:   1    -0.255734889567E+03   -0.32638E-02   -0.12883E-01  1992   0.124E+00    0.872E-02
DAV:   2    -0.255734877697E+03    0.11870E-04   -0.24671E-03  2448   0.183E-01    0.541E-02
DAV:   3    -0.255734934011E+03   -0.56314E-04   -0.48083E-04  1831   0.111E-01
  12 F= -.25573493E+03 E0= -.25573626E+03  d E =-.324417E-02  mag=     0.0000
 trial-energy change:   -0.003244  1 .order   -0.003363   -0.004139   -0.002587
 step:   1.0120(harm=  1.0120)  dis= 0.00985  next Energy=  -255.737208 (dE=-0.552E-02)
 bond charge predicted
       N       E                     dE             d eps       ncg     rms          rms(c)
DAV:   1    -0.255737201950E+03   -0.23243E-02   -0.35674E-01  1992   0.205E+00    0.148E-01
DAV:   2    -0.255737262241E+03   -0.60291E-04   -0.64587E-03  2480   0.280E-01    0.908E-02
DAV:   3    -0.255737309160E+03   -0.46919E-04   -0.10208E-03  2158   0.152E-01    0.355E-02
DAV:   4    -0.255737408526E+03   -0.99366E-04   -0.83523E-04  2016   0.163E-01
  13 F= -.25573741E+03 E0= -.25573856E+03  d E =-.571869E-02  mag=     0.0000
 curvature:  -1.17 expect dE=-0.594E-02 dE for cont linesearch -0.420E-05
 trial: gam= 0.50197 g(F)=  0.508E-02 g(S)=  0.000E+00 ort = 0.301E-03 (trialstep = 0.506E+00)
 search vector abs. value=  0.117E-01
 bond charge predicted
       N       E                     dE             d eps       ncg     rms          rms(c)
DAV:   1    -0.255739344584E+03   -0.20354E-02   -0.11585E-01  2016   0.114E+00    0.872E-02
DAV:   2    -0.255739259302E+03    0.85282E-04   -0.23889E-03  2340   0.185E-01    0.531E-02
DAV:   3    -0.255739325739E+03   -0.66437E-04   -0.54956E-04  1819   0.120E-01
  14 F= -.25573933E+03 E0= -.25574046E+03  d E =-.191721E-02  mag=    -0.0000
 trial-energy change:   -0.001917  1 .order   -0.002034   -0.002644   -0.001423
 step:   1.0951(harm=  1.0951)  dis= 0.00617  next Energy=  -255.740270 (dE=-0.286E-02)
 bond charge predicted
       N       E                     dE             d eps       ncg     rms          rms(c)
DAV:   1    -0.255740330179E+03   -0.10709E-02   -0.15658E-01  1992   0.133E+00    0.104E-01
DAV:   2    -0.255740204458E+03    0.12572E-03   -0.32522E-03  2404   0.217E-01    0.632E-02
DAV:   3    -0.255740308871E+03   -0.10441E-03   -0.76848E-04  1982   0.143E-01    0.236E-02
DAV:   4    -0.255740390079E+03   -0.81208E-04   -0.84476E-04  1920   0.165E-01
  15 F= -.25574039E+03 E0= -.25574151E+03  d E =-.298155E-02  mag=     0.0000
 curvature:  -1.23 expect dE=-0.326E-02 dE for cont linesearch -0.121E-05
 trial: gam= 0.52651 g(F)=  0.265E-02 g(S)=  0.000E+00 ort = 0.107E-03 (trialstep = 0.624E+00)
 search vector abs. value=  0.602E-02
 bond charge predicted
       N       E                     dE             d eps       ncg     rms          rms(c)
DAV:   1    -0.255741520257E+03   -0.12114E-02   -0.91890E-02  1992   0.101E+00    0.793E-02
DAV:   2    -0.255741516168E+03    0.40898E-05   -0.20423E-03  2546   0.153E-01    0.483E-02
DAV:   3    -0.255741502353E+03    0.13815E-04   -0.26570E-04  1842   0.753E-02
  16 F= -.25574150E+03 E0= -.25574256E+03  d E =-.111227E-02  mag=     0.0000
 trial-energy change:   -0.001112  1 .order   -0.001389   -0.001691   -0.001086
 step:   1.7427(harm=  1.7427)  dis= 0.00703  next Energy=  -255.742753 (dE=-0.236E-02)
 bond charge predicted
       N       E                     dE             d eps       ncg     rms          rms(c)
DAV:   1    -0.255742613682E+03   -0.10975E-02   -0.29424E-01  1992   0.179E+00    0.144E-01
DAV:   2    -0.255742615208E+03   -0.15265E-05   -0.62408E-03  2538   0.261E-01    0.870E-02
DAV:   3    -0.255742530395E+03    0.84813E-04   -0.79789E-04  2170   0.118E-01
  17 F= -.25574253E+03 E0= -.25574347E+03  d E =-.214032E-02  mag=    -0.0000
 curvature:  -1.94 expect dE=-0.112E-01 dE for cont linesearch -0.623E-05
 trial: gam= 2.24386 g(F)=  0.581E-02 g(S)=  0.000E+00 ort =-0.139E-03 (trialstep = 0.144E+00)
 search vector abs. value=  0.355E-01
 bond charge predicted
       N       E                     dE             d eps       ncg     rms          rms(c)
DAV:   1    -0.255743376553E+03   -0.76134E-03   -0.28929E-02  1992   0.558E-01    0.492E-02
DAV:   2    -0.255743320422E+03    0.56130E-04   -0.71082E-04  2104   0.115E-01
  18 F= -.25574332E+03 E0= -.25574423E+03  d E =-.790027E-03  mag=    -0.0000
 ZBRENT: can't locate minimum, use default step
 trial-energy change:   -0.000790  1 .order   -0.000787   -0.000790   -0.000783
 step:   0.5751(harm= 17.2677)  dis= 0.00618  next Energy=  -255.789975 (dE=-0.474E-01)
 bond charge predicted
       N       E                     dE             d eps       ncg     rms          rms(c)
DAV:   1    -0.255745509434E+03   -0.21329E-02   -0.25037E-01  1992   0.162E+00    0.134E-01
DAV:   2    -0.255745402070E+03    0.10736E-03   -0.47997E-03  2532   0.239E-01    0.815E-02
DAV:   3    -0.255745467970E+03   -0.65900E-04   -0.80691E-04  2008   0.137E-01
  19 F= -.25574547E+03 E0= -.25574629E+03  d E =-.293757E-02  mag=     0.0000
 curvature:  -2.77 expect dE=-0.108E-01 dE for cont linesearch -0.971E-03
 ZBRENT: increasing intervall
 opt :   1.4377  next Energy=  -255.746847 (dE=-0.432E-02)
 bond charge predicted
       N       E                     dE             d eps       ncg     rms          rms(c)
DAV:   1    -0.255747879794E+03   -0.24777E-02   -0.10134E+00  1992   0.325E+00    0.261E-01
DAV:   2    -0.255747739121E+03    0.14067E-03   -0.19135E-02  2544   0.453E-01    0.159E-01
DAV:   3    -0.255747596801E+03    0.14232E-03   -0.23593E-03  2110   0.214E-01    0.505E-02
DAV:   4    -0.255747764949E+03   -0.16815E-03   -0.15514E-03  2016   0.214E-01    0.242E-02
DAV:   5    -0.255747509318E+03    0.25563E-03   -0.98690E-04  1896   0.181E-01    0.126E-02
DAV:   6    -0.255747288187E+03    0.22113E-03   -0.32305E-04  1764   0.102E-01    0.478E-03
DAV:   7    -0.255747254631E+03    0.33556E-04   -0.31003E-05  1476   0.308E-02
  20 F= -.25574725E+03 E0= -.25574789E+03  d E =-.472424E-02  mag=     0.0000
 curvature:  -3.94 expect dE=-0.243E-01 dE for cont linesearch -0.755E-04
 trial: gam= 0.76566 g(F)=  0.616E-02 g(S)=  0.000E+00 ort = 0.825E-03 (trialstep = 0.403E+00)
 search vector abs. value=  0.282E-01
 bond charge predicted
       N       E                     dE             d eps       ncg     rms          rms(c)
DAV:   1    -0.255749616001E+03   -0.23278E-02   -0.18384E-01  1992   0.141E+00    0.113E-01
DAV:   2    -0.255749620616E+03   -0.46145E-05   -0.37459E-03  2576   0.194E-01    0.676E-02
DAV:   3    -0.255749530743E+03    0.89873E-04   -0.38900E-04  2202   0.667E-02
  21 F= -.25574953E+03 E0= -.25575014E+03  d E =-.227611E-02  mag=     0.0000
 trial-energy change:   -0.002276  1 .order   -0.002228   -0.002734   -0.001721
 step:   1.0860(harm=  1.0860)  dis= 0.01061  next Energy=  -255.750943 (dE=-0.369E-02)
 bond charge predicted
       N       E                     dE             d eps       ncg     rms          rms(c)
DAV:   1    -0.255751524463E+03   -0.19038E-02   -0.53137E-01  1992   0.239E+00    0.197E-01
DAV:   2    -0.255751564319E+03   -0.39856E-04   -0.10690E-02  2576   0.328E-01    0.118E-01
DAV:   3    -0.255751313101E+03    0.25122E-03   -0.11389E-03  2346   0.114E-01    0.357E-02
DAV:   4    -0.255751334423E+03   -0.21323E-04   -0.21911E-04  1632   0.453E-02
  22 F= -.25575133E+03 E0= -.25575190E+03  d E =-.407979E-02  mag=     0.0000
 curvature:  -2.26 expect dE=-0.747E-02 dE for cont linesearch -0.221E-04
 trial: gam= 0.63498 g(F)=  0.331E-02 g(S)=  0.000E+00 ort = 0.526E-03 (trialstep = 0.539E+00)
 search vector abs. value=  0.154E-01
 bond charge predicted
       N       E                     dE             d eps       ncg     rms          rms(c)
DAV:   1    -0.255753090657E+03   -0.17776E-02   -0.18045E-01  1992   0.138E+00    0.114E-01
DAV:   2    -0.255753091527E+03   -0.87034E-06   -0.33168E-03  2544   0.182E-01    0.680E-02
DAV:   3    -0.255753016847E+03    0.74680E-04   -0.34119E-04  2074   0.609E-02
  23 F= -.25575302E+03 E0= -.25575360E+03  d E =-.168242E-02  mag=    -0.0000
 trial-energy change:   -0.001682  1 .order   -0.001626   -0.001966   -0.001285
 step:   1.5583(harm=  1.5583)  dis= 0.01174  next Energy=  -255.754175 (dE=-0.284E-02)
 bond charge predicted
       N       E                     dE             d eps       ncg     rms          rms(c)
DAV:   1    -0.255754799230E+03   -0.17077E-02   -0.64439E-01  1992   0.262E+00    0.217E-01
DAV:   2    -0.255754774104E+03    0.25126E-04   -0.11727E-02  2544   0.343E-01    0.130E-01
DAV:   3    -0.255754495129E+03    0.27898E-03   -0.12720E-03  2330   0.116E-01    0.388E-02
DAV:   4    -0.255754523910E+03   -0.28781E-04   -0.22467E-04  1645   0.465E-02
  24 F= -.25575452E+03 E0= -.25575516E+03  d E =-.318949E-02  mag=    -0.0000
 curvature:  -3.28 expect dE=-0.104E-01 dE for cont linesearch -0.159E-04
 trial: gam= 0.96173 g(F)=  0.316E-02 g(S)=  0.000E+00 ort = 0.272E-03 (trialstep = 0.638E+00)
 search vector abs. value=  0.179E-01
 bond charge predicted
       N       E                     dE             d eps       ncg     rms          rms(c)
DAV:   1    -0.255756152439E+03   -0.16573E-02   -0.29449E-01  1992   0.178E+00    0.143E-01
DAV:   2    -0.255756144074E+03    0.83652E-05   -0.56400E-03  2538   0.241E-01    0.870E-02
DAV:   3    -0.255756027580E+03    0.11649E-03   -0.68614E-04  2349   0.884E-02    0.251E-02
DAV:   4    -0.255756041079E+03   -0.13499E-04   -0.12929E-04  1572   0.452E-02
  25 F= -.25575604E+03 E0= -.25575682E+03  d E =-.151717E-02  mag=     0.0000
 trial-energy change:   -0.001517  1 .order   -0.001454   -0.002181   -0.000727
 step:   0.9574(harm=  0.9574)  dis= 0.00757  next Energy=  -255.756160 (dE=-0.164E-02)
 bond charge predicted
       N       E                     dE             d eps       ncg     rms          rms(c)
DAV:   1    -0.255756297415E+03   -0.26984E-03   -0.73844E-02  1992   0.892E-01    0.716E-02
DAV:   2    -0.255756287647E+03    0.97678E-05   -0.14438E-03  2532   0.128E-01    0.436E-02
DAV:   3    -0.255756276795E+03    0.10852E-04   -0.19751E-04  1508   0.599E-02
  26 F= -.25575628E+03 E0= -.25575712E+03  d E =-.175288E-02  mag=     0.0000
 curvature:  -2.51 expect dE=-0.518E-02 dE for cont linesearch -0.936E-07
 trial: gam= 0.69757 g(F)=  0.207E-02 g(S)=  0.000E+00 ort = 0.258E-04 (trialstep = 0.702E+00)
 search vector abs. value=  0.108E-01
 bond charge predicted
       N       E                     dE             d eps       ncg     rms          rms(c)
DAV:   1    -0.255757293965E+03   -0.10063E-02   -0.21901E-01  1992   0.153E+00    0.123E-01
DAV:   2    -0.255757253632E+03    0.40333E-04   -0.42643E-03  2544   0.214E-01    0.754E-02
DAV:   3    -0.255757196719E+03    0.56913E-04   -0.61187E-04  2122   0.954E-02
  27 F= -.25575720E+03 E0= -.25575813E+03  d E =-.919925E-03  mag=    -0.0000
 trial-energy change:   -0.000920  1 .order   -0.000783   -0.001463   -0.000103
 step:   0.7552(harm=  0.7552)  dis= 0.00515  next Energy=  -255.757064 (dE=-0.787E-03)
 bond charge predicted
       N       E                     dE             d eps       ncg     rms          rms(c)
DAV:   1    -0.255757227267E+03    0.26365E-04   -0.16398E-03  2052   0.150E-01    0.172E-02
DAV:   2    -0.255757196362E+03    0.30905E-04   -0.13698E-04  1652   0.639E-02
  28 F= -.25575720E+03 E0= -.25575814E+03  d E =-.919568E-03  mag=    -0.0000
 curvature:  -1.96 expect dE=-0.907E-03 dE for cont linesearch -0.877E-05
 ZBRENT: increasing intervall
 opt :   0.8616  next Energy=  -255.757228 (dE=-0.951E-03)
 bond charge predicted
       N       E                     dE             d eps       ncg     rms          rms(c)
DAV:   1    -0.255757272358E+03   -0.45091E-04   -0.50781E-03  2028   0.244E-01    0.210E-02
DAV:   2    -0.255757221478E+03    0.50880E-04   -0.25172E-04  1680   0.831E-02
  29 F= -.25575722E+03 E0= -.25575818E+03  d E =-.944684E-03  mag=     0.0000
 curvature:  -6.96 expect dE=-0.396E-02 dE for cont linesearch -0.906E-07
 trial: gam= 0.27070 g(F)=  0.569E-03 g(S)=  0.000E+00 ort =-0.119E-04 (trialstep = 0.734E+00)
 search vector abs. value=  0.135E-02
 bond charge predicted
       N       E                     dE             d eps       ncg     rms          rms(c)
DAV:   1    -0.255757558572E+03   -0.28621E-03   -0.31033E-02  1992   0.595E-01    0.475E-02
DAV:   2    -0.255757502090E+03    0.56482E-04   -0.94310E-04  2164   0.129E-01
  30 F= -.25575750E+03 E0= -.25575845E+03  d E =-.280612E-03  mag=     0.0000
 trial-energy change:   -0.000281  1 .order   -0.000276   -0.000415   -0.000138
 step:   1.0996(harm=  1.0996)  dis= 0.00298  next Energy=  -255.757532 (dE=-0.311E-03)
 bond charge predicted
       N       E                     dE             d eps       ncg     rms          rms(c)
DAV:   1    -0.255757593563E+03   -0.34991E-04   -0.74378E-03  2010   0.304E-01    0.296E-02
DAV:   2    -0.255757515494E+03    0.78069E-04   -0.38763E-04  1719   0.104E-01
  31 F= -.25575752E+03 E0= -.25575845E+03  d E =-.294016E-03  mag=     0.0000
 curvature:  -1.32 expect dE=-0.566E-03 dE for cont linesearch -0.194E-05
 trial: gam= 0.80712 g(F)=  0.430E-03 g(S)=  0.000E+00 ort =-0.446E-04 (trialstep = 0.807E+00)
 search vector abs. value=  0.124E-02
 bond charge predicted
       N       E                     dE             d eps       ncg     rms          rms(c)
DAV:   1    -0.255757872931E+03   -0.27937E-03   -0.35015E-02  1992   0.627E-01    0.492E-02
DAV:   2    -0.255757758320E+03    0.11461E-03   -0.11813E-03  2040   0.155E-01    0.306E-02
DAV:   3    -0.255757912162E+03   -0.15384E-03   -0.52654E-04  1720   0.126E-01    0.119E-02
DAV:   4    -0.255757778543E+03    0.13362E-03   -0.51629E-04  1776   0.128E-01    0.634E-03
DAV:   5    -0.255757646137E+03    0.13241E-03   -0.11684E-04  1718   0.594E-02    0.280E-03
DAV:   6    -0.255757643625E+03    0.25123E-05   -0.38870E-06  1384   0.985E-03
  32 F= -.25575764E+03 E0= -.25575854E+03  d E =-.128131E-03  mag=     0.0000
 trial-energy change:   -0.000128  1 .order   -0.000188   -0.000318   -0.000059
 step:   0.9903(harm=  0.9903)  dis= 0.00277  next Energy=  -255.757710 (dE=-0.195E-03)
 bond charge predicted
       N       E                     dE             d eps       ncg     rms          rms(c)
DAV:   1    -0.255757651581E+03   -0.54436E-05   -0.18221E-03  2040   0.141E-01    0.106E-02
DAV:   2    -0.255757651505E+03    0.75226E-07   -0.38007E-05  1120   0.210E-02
  33 F= -.25575765E+03 E0= -.25575854E+03  d E =-.136011E-03  mag=     0.0000
 curvature:  -1.56 expect dE=-0.537E-03 dE for cont linesearch -0.335E-06
 trial: gam= 0.61995 g(F)=  0.344E-03 g(S)=  0.000E+00 ort = 0.163E-04 (trialstep = 0.844E+00)
 search vector abs. value=  0.841E-03
 bond charge predicted
       N       E                     dE             d eps       ncg     rms          rms(c)
DAV:   1    -0.255757871901E+03   -0.22032E-03   -0.25677E-02  1992   0.526E-01    0.394E-02
DAV:   2    -0.255757875163E+03   -0.32615E-05   -0.55384E-04  2372   0.754E-02
  34 F= -.25575788E+03 E0= -.25575873E+03  d E =-.223657E-03  mag=     0.0000
 trial-energy change:   -0.000224  1 .order   -0.000232   -0.000299   -0.000165
 step:   1.8832(harm=  1.8832)  dis= 0.00419  next Energy=  -255.757985 (dE=-0.334E-03)
 bond charge predicted
       N       E                     dE             d eps       ncg     rms          rms(c)
DAV:   1    -0.255757949438E+03   -0.77537E-04   -0.38170E-02  1992   0.645E-01    0.525E-02
DAV:   2    -0.255757948948E+03    0.49013E-06   -0.79287E-04  2448   0.898E-02
  35 F= -.25575795E+03 E0= -.25575877E+03  d E =-.297443E-03  mag=     0.0000
 curvature:  -2.24 expect dE=-0.129E-02 dE for cont linesearch -0.176E-06
 trial: gam= 1.82611 g(F)=  0.578E-03 g(S)=  0.000E+00 ort =-0.813E-05 (trialstep = 0.264E+00)
 search vector abs. value=  0.335E-02
 bond charge predicted
       N       E                     dE             d eps       ncg     rms          rms(c)
DAV:   1    -0.255758055835E+03   -0.10640E-03   -0.95142E-03  1992   0.323E-01    0.292E-02
DAV:   2    -0.255758054995E+03    0.84003E-06   -0.17430E-04  1556   0.446E-02
  36 F= -.25575805E+03 E0= -.25575887E+03  d E =-.106047E-03  mag=     0.0000
 ZBRENT: can't locate minimum, use default step
 trial-energy change:   -0.000106  1 .order   -0.000131   -0.000149   -0.000114
 step:   1.0551(harm=  1.1481)  dis= 0.00467  next Energy=  -255.758272 (dE=-0.323E-03)
 bond charge predicted
       N       E                     dE             d eps       ncg     rms          rms(c)
DAV:   1    -0.255758206555E+03   -0.15072E-03   -0.88984E-02  1992   0.974E-01    0.738E-02
DAV:   2    -0.255758233091E+03   -0.26536E-04   -0.18953E-03  2448   0.137E-01    0.461E-02
DAV:   3    -0.255758197582E+03    0.35510E-04   -0.16710E-04  1514   0.459E-02
  37 F= -.25575820E+03 E0= -.25575900E+03  d E =-.248633E-03  mag=    -0.0000
 curvature:  -3.38 expect dE=-0.187E-02 dE for cont linesearch -0.269E-05
 trial: gam= 0.78341 g(F)=  0.553E-03 g(S)=  0.000E+00 ort =-0.517E-04 (trialstep = 0.422E+00)
 search vector abs. value=  0.253E-02
 bond charge predicted
       N       E                     dE             d eps       ncg     rms          rms(c)
DAV:   1    -0.255758390153E+03   -0.15706E-03   -0.19548E-02  1992   0.453E-01    0.358E-02
DAV:   2    -0.255758397673E+03   -0.75202E-05   -0.43180E-04  2052   0.665E-02
  38 F= -.25575840E+03 E0= -.25575921E+03  d E =-.200091E-03  mag=     0.0000
 ZBRENT: can't locate minimum, use default step
 trial-energy change:   -0.000200  1 .order   -0.000195   -0.000216   -0.000173
 step:   1.6882(harm=  2.1017)  dis= 0.00580  next Energy=  -255.758736 (dE=-0.539E-03)
 bond charge predicted
       N       E                     dE             d eps       ncg     rms          rms(c)
DAV:   1    -0.255758537463E+03   -0.14731E-03   -0.17304E-01  1992   0.135E+00    0.105E-01
DAV:   2    -0.255758564902E+03   -0.27439E-04   -0.38244E-03  2420   0.194E-01    0.661E-02
DAV:   3    -0.255758488746E+03    0.76156E-04   -0.42355E-04  2224   0.691E-02
  39 F= -.25575849E+03 E0= -.25575933E+03  d E =-.291164E-03  mag=     0.0000
 curvature:  -4.87 expect dE=-0.521E-02 dE for cont linesearch -0.164E-03
 ZBRENT: interpolating
 opt :   1.1618  next Energy=  -255.758566 (dE=-0.368E-03)
 bond charge predicted
       N       E                     dE             d eps       ncg     rms          rms(c)
DAV:   1    -0.255758555326E+03    0.95763E-05   -0.29811E-02  1992   0.557E-01    0.394E-02
DAV:   2    -0.255758558437E+03   -0.31111E-05   -0.73360E-04  2314   0.857E-02
  40 F= -.25575856E+03 E0= -.25575938E+03  d E =-.360855E-03  mag=     0.0000
 curvature:  -2.28 expect dE=-0.121E-02 dE for cont linesearch -0.165E-06
 trial: gam= 0.89416 g(F)=  0.531E-03 g(S)=  0.000E+00 ort =-0.135E-04 (trialstep = 0.570E+00)
 search vector abs. value=  0.253E-02
 bond charge predicted
       N       E                     dE             d eps       ncg     rms          rms(c)
DAV:   1    -0.255758774879E+03   -0.21955E-03   -0.36256E-02  1992   0.609E-01    0.421E-02
DAV:   2    -0.255758789012E+03   -0.14133E-04   -0.87319E-04  2372   0.939E-02
  41 F= -.25575879E+03 E0= -.25575962E+03  d E =-.230575E-03  mag=    -0.0000
 trial-energy change:   -0.000231  1 .order   -0.000235   -0.000296   -0.000174
 step:   1.3787(harm=  1.3787)  dis= 0.00440  next Energy=  -255.758916 (dE=-0.358E-03)
 bond charge predicted
       N       E                     dE             d eps       ncg     rms          rms(c)
DAV:   1    -0.255758858031E+03   -0.83152E-04   -0.69113E-02  1992   0.853E-01    0.699E-02
DAV:   2    -0.255758849231E+03    0.88008E-05   -0.15310E-03  2362   0.125E-01    0.436E-02
DAV:   3    -0.255758824227E+03    0.25004E-04   -0.19210E-04  1530   0.527E-02
  42 F= -.25575882E+03 E0= -.25575965E+03  d E =-.265790E-03  mag=    -0.0000
 curvature:  -3.36 expect dE=-0.216E-02 dE for cont linesearch -0.415E-04
 ZBRENT: interpolating
 opt :   1.0815  next Energy=  -255.758851 (dE=-0.292E-03)
 bond charge predicted
       N       E                     dE             d eps       ncg     rms          rms(c)
DAV:   1    -0.255758857805E+03   -0.85739E-05   -0.94792E-03  1992   0.314E-01    0.227E-02
DAV:   2    -0.255758848775E+03    0.90292E-05   -0.25043E-04  1617   0.588E-02
  43 F= -.25575885E+03 E0= -.25575968E+03  d E =-.290339E-03  mag=     0.0000
 curvature:  -2.12 expect dE=-0.812E-03 dE for cont linesearch -0.228E-05
 trial: gam= 0.78597 g(F)=  0.382E-03 g(S)=  0.000E+00 ort =-0.521E-04 (trialstep = 0.672E+00)
 search vector abs. value=  0.186E-02
 bond charge predicted
       N       E                     dE             d eps       ncg     rms          rms(c)
DAV:   1    -0.255759038753E+03   -0.18095E-03   -0.36535E-02  1992   0.616E-01    0.455E-02
DAV:   2    -0.255759037450E+03    0.13025E-05   -0.88777E-04  2132   0.101E-01
  44 F= -.25575904E+03 E0= -.25575986E+03  d E =-.188675E-03  mag=    -0.0000
 trial-energy change:   -0.000189  1 .order   -0.000172   -0.000229   -0.000115
 step:   1.3440(harm=  1.3440)  dis= 0.00346  next Energy=  -255.759078 (dE=-0.229E-03)
 bond charge predicted
       N       E                     dE             d eps       ncg     rms          rms(c)
DAV:   1    -0.255759054012E+03   -0.15259E-04   -0.34288E-02  1992   0.606E-01    0.526E-02
DAV:   2    -0.255759036379E+03    0.17633E-04   -0.77826E-04  2410   0.971E-02
  45 F= -.25575904E+03 E0= -.25575986E+03  d E =-.187603E-03  mag=    -0.0000
 curvature:  -3.67 expect dE=-0.172E-02 dE for cont linesearch -0.123E-04
 ZBRENT: interpolating
 opt :   1.1316  next Energy=  -255.759045 (dE=-0.196E-03)
 bond charge predicted
       N       E                     dE             d eps       ncg     rms          rms(c)
DAV:   1    -0.255759064969E+03   -0.10957E-04   -0.41939E-03  1998   0.209E-01    0.137E-02
DAV:   2    -0.255759050186E+03    0.14783E-04   -0.18862E-04  1462   0.609E-02
  46 F= -.25575905E+03 E0= -.25575987E+03  d E =-.201411E-03  mag=    -0.0000
 curvature:  -2.51 expect dE=-0.798E-03 dE for cont linesearch -0.640E-05
 ZBRENT: bisectioning
 opt :   0.9019  next Energy=  -255.759065 (dE=-0.216E-03)
 bond charge predicted
       N       E                     dE             d eps       ncg     rms          rms(c)
DAV:   1    -0.255759062267E+03    0.27018E-05   -0.40445E-03  1992   0.212E-01    0.175E-02
DAV:   2    -0.255759045531E+03    0.16737E-04   -0.12441E-04  1336   0.521E-02
  47 F= -.25575905E+03 E0= -.25575987E+03  d E =-.196755E-03  mag=     0.0000
 curvature:  -5.72 expect dE=-0.119E-02 dE for cont linesearch -0.820E-07
 trial: gam= 0.43852 g(F)=  0.208E-03 g(S)=  0.000E+00 ort = 0.517E-05 (trialstep = 0.718E+00)
 search vector abs. value=  0.571E-03
 bond charge predicted
       N       E                     dE             d eps       ncg     rms          rms(c)
DAV:   1    -0.255759193819E+03   -0.13155E-03   -0.13091E-02  1992   0.373E-01    0.290E-02
DAV:   2    -0.255759172285E+03    0.21534E-04   -0.38862E-04  1928   0.810E-02
  48 F= -.25575917E+03 E0= -.25576000E+03  d E =-.126754E-03  mag=    -0.0000
 trial-energy change:   -0.000127  1 .order   -0.000115   -0.000151   -0.000079
 step:   1.5000(harm=  1.5000)  dis= 0.00175  next Energy=  -255.759203 (dE=-0.158E-03)
 bond charge predicted
       N       E                     dE             d eps       ncg     rms          rms(c)
DAV:   1    -0.255759210342E+03   -0.16523E-04   -0.14528E-02  1992   0.400E-01    0.360E-02
DAV:   2    -0.255759181252E+03    0.29090E-04   -0.38833E-04  1988   0.814E-02
  49 F= -.25575918E+03 E0= -.25576002E+03  d E =-.135721E-03  mag=    -0.0000
 curvature:  -2.03 expect dE=-0.743E-03 dE for cont linesearch -0.632E-05
 ZBRENT: interpolating
 opt :   1.2832  next Energy=  -255.759186 (dE=-0.140E-03)
 bond charge predicted
       N       E                     dE             d eps       ncg     rms          rms(c)
DAV:   1    -0.255759226307E+03   -0.15965E-04   -0.14939E-03  1896   0.134E-01    0.865E-03
DAV:   2    -0.255759194213E+03    0.32094E-04   -0.15248E-04  1592   0.647E-02
  50 F= -.25575919E+03 E0= -.25576003E+03  d E =-.148682E-03  mag=    -0.0000
 curvature:  -1.47 expect dE=-0.381E-03 dE for cont linesearch -0.231E-05
 trial: gam= 1.50790 g(F)=  0.259E-03 g(S)=  0.000E+00 ort =-0.300E-04 (trialstep = 0.323E+00)
 search vector abs. value=  0.147E-02
 bond charge predicted
       N       E                     dE             d eps       ncg     rms          rms(c)
DAV:   1    -0.255759249448E+03   -0.23141E-04   -0.65213E-03  1992   0.262E-01    0.194E-02
DAV:   2    -0.255759239551E+03    0.98975E-05   -0.16047E-04  1354   0.548E-02
  51 F= -.25575924E+03 E0= -.25576009E+03  d E =-.453378E-04  mag=     0.0000
 ZBRENT: can't locate minimum, use default step
 trial-energy change:   -0.000045  1 .order   -0.000066   -0.000069   -0.000062
 step:   1.2939(harm=  3.0829)  dis= 0.00248  next Energy=  -255.759524 (dE=-0.330E-03)
 bond charge predicted
       N       E                     dE             d eps       ncg     rms          rms(c)
DAV:   1    -0.255759355766E+03   -0.10632E-03   -0.56764E-02  1992   0.770E-01    0.629E-02
DAV:   2    -0.255759334642E+03    0.21125E-04   -0.11948E-03  2340   0.120E-01    0.389E-02
DAV:   3    -0.255759341600E+03   -0.69589E-05   -0.19190E-04  1566   0.637E-02
  52 F= -.25575934E+03 E0= -.25576023E+03  d E =-.147387E-03  mag=     0.0000
 curvature:  -6.12 expect dE=-0.182E-02 dE for cont linesearch -0.108E-04
 trial: gam= 0.67733 g(F)=  0.297E-03 g(S)=  0.000E+00 ort =-0.509E-04 (trialstep = 0.518E+00)
 search vector abs. value=  0.901E-03
 bond charge predicted
       N       E                     dE             d eps       ncg     rms          rms(c)
DAV:   1    -0.255759471717E+03   -0.13708E-03   -0.11053E-02  1992   0.347E-01    0.284E-02
DAV:   2    -0.255759439377E+03    0.32341E-04   -0.36001E-04  1904   0.845E-02
  53 F= -.25575944E+03 E0= -.25576034E+03  d E =-.977762E-04  mag=    -0.0000
 trial-energy change:   -0.000098  1 .order   -0.000107   -0.000136   -0.000078
 step:   1.2217(harm=  1.2217)  dis= 0.00173  next Energy=  -255.759502 (dE=-0.160E-03)
 bond charge predicted
       N       E                     dE             d eps       ncg     rms          rms(c)
DAV:   1    -0.255759532328E+03   -0.60611E-04   -0.19501E-02  1992   0.461E-01    0.391E-02
DAV:   2    -0.255759476894E+03    0.55434E-04   -0.58502E-04  2004   0.107E-01
  54 F= -.25575948E+03 E0= -.25576040E+03  d E =-.135293E-03  mag=    -0.0000
 curvature:  -2.10 expect dE=-0.574E-03 dE for cont linesearch -0.432E-05
 trial: gam= 1.10963 g(F)=  0.274E-03 g(S)=  0.000E+00 ort =-0.431E-04 (trialstep = 0.461E+00)
 search vector abs. value=  0.129E-02
 bond charge predicted
       N       E                     dE             d eps       ncg     rms          rms(c)
DAV:   1    -0.255759658007E+03   -0.12568E-03   -0.11919E-02  1992   0.365E-01    0.314E-02
DAV:   2    -0.255759569877E+03    0.88130E-04   -0.52186E-04  1960   0.114E-01
  55 F= -.25575957E+03 E0= -.25576049E+03  d E =-.929832E-04  mag=    -0.0000
 trial-energy change:   -0.000093  1 .order   -0.000079   -0.000104   -0.000054
 step:   0.9555(harm=  0.9555)  dis= 0.00169  next Energy=  -255.759585 (dE=-0.108E-03)
 bond charge predicted
       N       E                     dE             d eps       ncg     rms          rms(c)
DAV:   1    -0.255759753791E+03   -0.95784E-04   -0.13974E-02  1992   0.397E-01    0.340E-02
DAV:   2    -0.255759624139E+03    0.12965E-03   -0.68621E-04  1992   0.133E-01    0.213E-02
DAV:   3    -0.255759821561E+03   -0.19742E-03   -0.51495E-04  1720   0.126E-01    0.904E-03
DAV:   4    -0.255759562688E+03    0.25887E-03   -0.37933E-04  1704   0.108E-01    0.378E-03
DAV:   5    -0.255759517053E+03    0.45635E-04   -0.38030E-05  1482   0.331E-02
  56 F= -.25575952E+03 E0= -.25576044E+03  d E =-.401591E-04  mag=    -0.0000
 curvature:  -2.72 expect dE=-0.797E-03 dE for cont linesearch -0.104E-05
 trial: gam= 0.64096 g(F)=  0.293E-03 g(S)=  0.000E+00 ort =-0.222E-04 (trialstep = 0.560E+00)
 search vector abs. value=  0.793E-03
 bond charge predicted
       N       E                     dE             d eps       ncg     rms          rms(c)
DAV:   1    -0.255759632076E+03   -0.69388E-04   -0.11645E-02  1992   0.354E-01    0.274E-02
DAV:   2    -0.255759631696E+03    0.37947E-06   -0.27467E-04  1700   0.544E-02
  57 F= -.25575963E+03 E0= -.25576054E+03  d E =-.114644E-03  mag=    -0.0000
 trial-energy change:   -0.000115  1 .order   -0.000124   -0.000156   -0.000092
 step:   1.3567(harm=  1.3567)  dis= 0.00165  next Energy=  -255.759706 (dE=-0.189E-03)
 bond charge predicted
       N       E                     dE             d eps       ncg     rms          rms(c)
DAV:   1    -0.255759629534E+03    0.25421E-05   -0.22512E-02  1992   0.495E-01    0.412E-02
DAV:   2    -0.255759628493E+03    0.10408E-05   -0.51964E-04  2272   0.737E-02
  58 F= -.25575963E+03 E0= -.25576052E+03  d E =-.111440E-03  mag=    -0.0000
 curvature:  -1.93 expect dE=-0.647E-03 dE for cont linesearch -0.206E-04
 ZBRENT: interpolating
 opt :   1.0696  next Energy=  -255.759642 (dE=-0.125E-03)
 bond charge predicted
       N       E                     dE             d eps       ncg     rms          rms(c)
DAV:   1    -0.255759646080E+03   -0.16547E-04   -0.35795E-03  1992   0.192E-01    0.124E-02
DAV:   2    -0.255759647251E+03   -0.11704E-05   -0.11498E-04  1284   0.350E-02
  59 F= -.25575965E+03 E0= -.25576055E+03  d E =-.130198E-03  mag=    -0.0000
 curvature:  -1.24 expect dE=-0.251E-03 dE for cont linesearch -0.753E-05
 ZBRENT: bisectioning
 opt :   0.8147  next Energy=  -255.759662 (dE=-0.145E-03)
 bond charge predicted
       N       E                     dE             d eps       ncg     rms          rms(c)
DAV:   1    -0.255759648834E+03   -0.27536E-05   -0.22567E-03  1992   0.159E-01    0.137E-02
DAV:   2    -0.255759646911E+03    0.19225E-05   -0.47989E-05  1310   0.236E-02
  60 F= -.25575965E+03 E0= -.25576055E+03  d E =-.129859E-03  mag=    -0.0000
 curvature:  -2.49 expect dE=-0.284E-03 dE for cont linesearch -0.622E-06
 trial: gam= 0.32267 g(F)=  0.114E-03 g(S)=  0.000E+00 ort = 0.141E-04 (trialstep = 0.611E+00)
 search vector abs. value=  0.206E-03
 bond charge predicted
       N       E                     dE             d eps       ncg     rms          rms(c)
DAV:   1    -0.255759702352E+03   -0.53518E-04   -0.36596E-03  1992   0.201E-01    0.156E-02
DAV:   2    -0.255759701643E+03    0.70859E-06   -0.90464E-05  1074   0.327E-02
  61 F= -.25575970E+03 E0= -.25576059E+03  d E =-.547318E-04  mag=    -0.0000
 trial-energy change:   -0.000055  1 .order   -0.000055   -0.000072   -0.000038
 step:   1.2808(harm=  1.2808)  dis= 0.00084  next Energy=  -255.759723 (dE=-0.759E-04)
 reached required accuracy - stopping structural energy minimisation
