<?xml version="1.0" encoding="ISO-8859-1"?>
<modeling>
 <generator>
  <i name="program" type="string">vasp </i>
  <i name="version" type="string">5.3.3  </i>
  <i name="subversion" type="string">18Dez12 (build Aug 26 2015 16:06:49) complex                          parallel </i>
  <i name="platform" type="string">LinuxIFC </i>
  <i name="date" type="string">2020 04 21 </i>
  <i name="time" type="string">16:34:27 </i>
 </generator>
 <incar>
  <i type="string" name="SYSTEM"> Beta12Borophene !The name of the system</i>
  <i type="string" name="PREC">normal   !normal or accurate</i>
  <i type="string" name="ALGO"> Normal   !def=Normal. Sets IALGO and LD</i>
  <i type="int" name="ISPIN">     2</i>
  <i type="int" name="NELM">    60</i>
  <i type="int" name="IBRION">     2</i>
  <i name="EDIFFG">     -0.01000000</i>
  <i type="int" name="NSW">  1000</i>
  <i type="int" name="ISIF">     2</i>
  <i name="ENCUT">    500.00000000</i>
  <i name="POTIM">      0.50000000</i>
  <v name="MAGMOM">      0.00000000      0.00000000      0.00000000      0.00000000      0.00000000      0.00000000      0.00000000      0.00000000      0.00000000      0.00000000      0.00000000      0.00000000      0.00000000      0.00000000      0.00000000      0.00000000      0.00000000      0.00000000      0.00000000      0.00000000
      0.00000000      0.00000000      0.00000000      0.00000000      0.00000000      0.00000000      0.00000000      0.00000000      0.00000000      0.00000000      0.00000000      0.00000000      0.00000000      0.00000000      0.00000000      0.00000000      0.00000000      0.00000000      0.00000000      0.00000000
      0.00000000      0.00000000      0.00000000      0.00000000      0.00000000      0.00000000</v>
  <i type="string" name="LREAL"> Auto   !values=.FALSE. or Auto  (def=.F</i>
  <i type="int" name="ISMEAR">     1</i>
  <i name="SIGMA">      0.10000000</i>
  <i type="logical" name="LWAVE"> F  </i>
  <i type="logical" name="LCHARG"> F  </i>
  <i type="logical" name="LVTOT"> F  </i>
  <i type="logical" name="LELF"> F  </i>
  <i type="int" name="NELM">    60</i>
  <i type="string" name="GGA"> PE   !GGA flavor: PE=PBE, RP=RPBE, RE=r</i>
  <i type="logical" name="LDIPOL"> T  </i>
  <i type="int" name="IDIPOL">     3</i>
 </incar>
 <kpoints>
  <generation param="Monkhorst-Pack">
   <v type="int" name="divisions">       3        3        2 </v>
   <v name="usershift">      0.00000000       0.00000000       0.00000000 </v>
   <v name="genvec1">      0.33333333       0.00000000       0.00000000 </v>
   <v name="genvec2">      0.00000000       0.33333333       0.00000000 </v>
   <v name="genvec3">      0.00000000       0.00000000       0.50000000 </v>
   <v name="shift">      0.00000000       0.00000000       0.50000000 </v>
  </generation>
  <varray name="kpointlist" >
   <v>       0.00000000       0.00000000       0.25000000 </v>
   <v>       0.33333333       0.00000000       0.25000000 </v>
   <v>      -0.33333333       0.00000000       0.25000000 </v>
   <v>       0.00000000       0.33333333       0.25000000 </v>
   <v>       0.33333333       0.33333333       0.25000000 </v>
   <v>      -0.33333333       0.33333333       0.25000000 </v>
  </varray>
  <varray name="weights" >
   <v>       0.11111111 </v>
   <v>       0.11111111 </v>
   <v>       0.11111111 </v>
   <v>       0.22222222 </v>
   <v>       0.22222222 </v>
   <v>       0.22222222 </v>
  </varray>
 </kpoints>
 <parameters>
  <separator name="general" >
   <i type="string" name="SYSTEM">Beta12Borophene !The name of the system</i>
   <i type="logical" name="LCOMPAT"> F  </i>
  </separator>
  <separator name="electronic" >
   <i type="string" name="PREC">normal</i>
   <i name="ENMAX">    500.00000000</i>
   <i name="ENAUG">    535.51400000</i>
   <i name="EDIFF">      0.00010000</i>
   <i type="int" name="IALGO">    38</i>
   <i type="int" name="IWAVPR">    11</i>
   <i type="int" name="NBANDS">    83</i>
   <i name="NELECT">    124.00000000</i>
   <i type="int" name="TURBO">     0</i>
   <i type="int" name="IRESTART">     0</i>
   <i type="int" name="NREBOOT">     0</i>
   <i type="int" name="NMIN">     0</i>
   <i name="EREF">      0.00000000</i>
   <separator name="electronic smearing" >
    <i type="int" name="ISMEAR">     1</i>
    <i name="SIGMA">      0.10000000</i>
    <i name="KSPACING">      0.50000000</i>
    <i type="logical" name="KGAMMA"> T  </i>
   </separator>
   <separator name="electronic projectors" >
    <i type="logical" name="LREAL"> T  </i>
    <v name="ROPT">     -0.00050000     -0.00050000</v>
    <i type="int" name="LMAXPAW">  -100</i>
    <i type="int" name="LMAXMIX">     2</i>
    <i type="logical" name="NLSPLINE"> F  </i>
   </separator>
   <separator name="electronic startup" >
    <i type="int" name="ISTART">     0</i>
    <i type="int" name="ICHARG">     2</i>
    <i type="int" name="INIWAV">     1</i>
   </separator>
   <separator name="electronic spin" >
    <i type="int" name="ISPIN">     2</i>
    <i type="logical" name="LNONCOLLINEAR"> F  </i>
    <v name="MAGMOM">      0.00000000      0.00000000      0.00000000      0.00000000      0.00000000      0.00000000      0.00000000      0.00000000      0.00000000      0.00000000      0.00000000      0.00000000      0.00000000      0.00000000      0.00000000      0.00000000      0.00000000      0.00000000      0.00000000      0.00000000
      0.00000000      0.00000000      0.00000000      0.00000000      0.00000000      0.00000000      0.00000000      0.00000000      0.00000000      0.00000000      0.00000000      0.00000000      0.00000000      0.00000000      0.00000000      0.00000000      0.00000000      0.00000000      0.00000000      0.00000000
      0.00000000</v>
    <i name="NUPDOWN">     -1.00000000</i>
    <i type="logical" name="LSORBIT"> F  </i>
    <v name="SAXIS">      0.00000000      0.00000000      1.00000000</v>
    <i type="logical" name="LSPIRAL"> F  </i>
    <v name="QSPIRAL">      0.00000000      0.00000000      0.00000000</v>
    <i type="logical" name="LZEROZ"> F  </i>
   </separator>
   <separator name="electronic exchange-correlation" >
    <i type="logical" name="LASPH"> F  </i>
    <i type="logical" name="LMETAGGA"> F  </i>
   </separator>
   <separator name="electronic convergence" >
    <i type="int" name="NELM">    60</i>
    <i type="int" name="NELMDL">    -5</i>
    <i type="int" name="NELMIN">     2</i>
    <i name="ENINI">    500.00000000</i>
    <separator name="electronic convergence detail" >
     <i type="logical" name="LDIAG"> T  </i>
     <i type="logical" name="LSUBROT"> T  </i>
     <i name="WEIMIN">      0.00100000</i>
     <i name="EBREAK">      0.00000030</i>
     <i name="DEPER">      0.30000000</i>
     <i type="int" name="NRMM">     4</i>
     <i name="TIME">      0.40000000</i>
    </separator>
   </separator>
   <separator name="electronic mixer" >
    <i name="AMIX">      0.40000000</i>
    <i name="BMIX">      1.00000000</i>
    <i name="AMIN">      0.10000000</i>
    <i name="AMIX_MAG">      1.60000000</i>
    <i name="BMIX_MAG">      1.00000000</i>
    <separator name="electronic mixer details" >
     <i type="int" name="IMIX">     4</i>
     <i type="int" name="MAXMIX">   -45</i>
     <i name="WC">    100.00000000</i>
     <i type="int" name="INIMIX">     1</i>
     <i type="int" name="MIXPRE">     1</i>
     <i type="int" name="MREMOVE">     5</i>
    </separator>
   </separator>
   <separator name="electronic dipolcorrection" >
    <i type="logical" name="LDIPOL"> T  </i>
    <i type="logical" name="LMONO"> F  </i>
    <i type="int" name="IDIPOL">     3</i>
    <i name="EPSILON">      1.00000000</i>
    <v name="DIPOL">   -100.00000000   -100.00000000   -100.00000000</v>
    <i name="EFIELD">      0.00000000</i>
   </separator>
  </separator>
  <separator name="grids" >
   <i type="int" name="NGX">    56</i>
   <i type="int" name="NGY">    64</i>
   <i type="int" name="NGZ">    84</i>
   <i type="int" name="NGXF">   112</i>
   <i type="int" name="NGYF">   128</i>
   <i type="int" name="NGZF">   168</i>
   <i type="logical" name="ADDGRID"> F  </i>
  </separator>
  <separator name="ionic" >
   <i type="int" name="NSW">  1000</i>
   <i type="int" name="IBRION">     2</i>
   <i type="int" name="ISIF">     2</i>
   <i name="PSTRESS">      0.00000000</i>
   <i name="EDIFFG">     -0.01000000</i>
   <i type="int" name="NFREE">     1</i>
   <i name="POTIM">      0.50000000</i>
   <i name="SMASS">     -3.00000000</i>
   <i name="SCALEE">      1.00000000</i>
  </separator>
  <separator name="ionic md" >
   <i name="TEBEG">      0.00010000</i>
   <i name="TEEND">      0.00010000</i>
   <i type="int" name="NBLOCK">     1</i>
   <i type="int" name="KBLOCK">  1000</i>
   <i type="int" name="NPACO">   256</i>
   <i name="APACO">     16.00000000</i>
  </separator>
  <separator name="symmetry" >
   <i type="int" name="ISYM">     2</i>
   <i name="SYMPREC">      0.00001000</i>
  </separator>
  <separator name="dos" >
   <i type="logical" name="LORBIT"> F  </i>
   <v name="RWIGS">     -1.00000000     -1.00000000</v>
   <i type="int" name="NEDOS">   301</i>
   <i name="EMIN">     10.00000000</i>
   <i name="EMAX">    -10.00000000</i>
   <i name="EFERMI">      0.00000000</i>
  </separator>
  <separator name="writing" >
   <i type="int" name="NWRITE">     2</i>
   <i type="logical" name="LWAVE"> F  </i>
   <i type="logical" name="LCHARG"> F  </i>
   <i type="logical" name="LPARD"> F  </i>
   <i type="logical" name="LVTOT"> F  </i>
   <i type="logical" name="LVHAR"> F  </i>
   <i type="logical" name="LELF"> F  </i>
   <i type="logical" name="LOPTICS"> F  </i>
   <v name="STM">      0.00000000      0.00000000      0.00000000      0.00000000      0.00000000      0.00000000      0.00000000</v>
  </separator>
  <separator name="performance" >
   <i type="int" name="NPAR">     1</i>
   <i type="int" name="NSIM">     4</i>
   <i type="int" name="NBLK">    -1</i>
   <i type="logical" name="LPLANE"> T  </i>
   <i type="logical" name="LSCALAPACK"> T  </i>
   <i type="logical" name="LSCAAWARE"> F  </i>
   <i type="logical" name="LSCALU"> F  </i>
   <i type="logical" name="LASYNC"> F  </i>
   <i type="logical" name="LORBITALREAL"> F  </i>
  </separator>
  <separator name="miscellaneous" >
   <i type="int" name="IDIOT">     3</i>
   <i type="logical" name="LMUSIC"> F  </i>
   <v name="POMASS">     10.81100000     28.08500000</v>
   <v name="DARWINR">      0.00000000      0.00000000</v>
   <v name="DARWINV">      1.00000000      1.00000000</v>
   <i type="logical" name="LCORR"> T  </i>
  </separator>
  <i type="logical" name="GGA_COMPAT"> T  </i>
  <i type="logical" name="LBERRY"> F  </i>
  <i type="int" name="ICORELEVEL">     0</i>
  <i type="logical" name="LDAU"> F  </i>
  <i type="int" name="I_CONSTRAINED_M">     0</i>
  <separator name="electronic exchange-correlation" >
   <i type="string" name="GGA">PE</i>
   <i type="int" name="VOSKOWN">     0</i>
   <i type="logical" name="LHFCALC"> F  </i>
   <i type="string" name="PRECFOCK"></i>
   <i type="logical" name="LSYMGRAD"> F  </i>
   <i type="logical" name="LHFONE"> F  </i>
   <i type="logical" name="LRHFCALC"> F  </i>
   <i type="logical" name="LTHOMAS"> F  </i>
   <i type="logical" name="LMODELHF"> F  </i>
   <i name="ENCUT4O">     -1.00000000</i>
   <i type="int" name="EXXOEP">     0</i>
   <i type="int" name="FOURORBIT">     0</i>
   <i name="AEXX">      0.00000000</i>
   <i name="HFALPHA">      0.00000000</i>
   <i name="MCALPHA">      0.00000000</i>
   <i name="ALDAX">      1.00000000</i>
   <i name="AGGAX">      1.00000000</i>
   <i name="ALDAC">      1.00000000</i>
   <i name="AGGAC">      1.00000000</i>
   <i type="int" name="NKREDX">     1</i>
   <i type="int" name="NKREDY">     1</i>
   <i type="int" name="NKREDZ">     1</i>
   <i type="logical" name="SHIFTRED"> F  </i>
   <i type="logical" name="ODDONLY"> F  </i>
   <i type="logical" name="EVENONLY"> F  </i>
   <i type="int" name="LMAXFOCK">     0</i>
   <i type="int" name="NMAXFOCKAE">     0</i>
   <i type="logical" name="LFOCKAEDFT"> F  </i>
   <i name="HFSCREEN">      0.00000000</i>
   <i name="HFSCREENC">      0.00000000</i>
   <i type="int" name="NBANDSGWLOW">     0</i>
  </separator>
  <separator name="vdW DFT" >
   <i type="logical" name="LUSE_VDW"> F  </i>
   <i name="Zab_VDW">     -0.84910000</i>
   <i name="PARAM1">      0.12340000</i>
   <i name="PARAM2">      1.00000000</i>
   <i name="PARAM3">      0.00000000</i>
  </separator>
  <separator name="model GW" >
   <i type="int" name="MODEL_GW">     0</i>
   <i name="MODEL_EPS0">     26.22766829</i>
   <i name="MODEL_ALPHA">      1.00000000</i>
  </separator>
  <separator name="linear response parameters" >
   <i type="logical" name="LEPSILON"> F  </i>
   <i type="logical" name="LRPA"> F  </i>
   <i type="logical" name="LNABLA"> F  </i>
   <i type="logical" name="LVEL"> F  </i>
   <i type="int" name="KINTER">     0</i>
   <i name="CSHIFT">      0.10000000</i>
   <i name="OMEGAMAX">     -1.00000000</i>
   <i name="DEG_THRESHOLD">      0.00200000</i>
  </separator>
  <separator name="orbital magnetization" >
   <i type="logical" name="NUCIND"> F  </i>
   <v name="MAGPOS">      0.00000000      0.00000000      0.00000000</v>
   <i type="logical" name="LNICSALL"> T  </i>
   <i type="logical" name="ORBITALMAG"> F  </i>
   <i type="logical" name="LMAGBLOCH"> F  </i>
   <i type="logical" name="LCHIMAG"> F  </i>
   <i type="logical" name="LGAUGE"> T  </i>
   <i type="int" name="MAGATOM">     0</i>
   <v name="MAGDIPOL">      0.00000000      0.00000000      0.00000000</v>
   <v name="AVECCONST">      0.00000000      0.00000000      0.00000000</v>
  </separator>
  <separator name="response functions" >
   <i type="logical" name="LADDER"> F  </i>
   <i type="logical" name="LFXC"> F  </i>
   <i type="logical" name="LHARTREE"> T  </i>
   <i type="int" name="IBSE">     0</i>
   <i type="logical" name="LTCTE"> F  </i>
   <i type="logical" name="LTETE"> F  </i>
   <i type="logical" name="LTRIPLET"> F  </i>
   <i type="logical" name="LFXCEPS"> F  </i>
   <i type="logical" name="L2ORDER"> F  </i>
   <i type="logical" name="LUSEW"> F  </i>
   <i name="ENCUTGW">     -2.00000000</i>
   <i name="ENCUTGWSOFT">     -2.00000000</i>
   <i name="ENCUTLF">     -1.00000000</i>
   <i type="int" name="LMAXMP2">    -1</i>
   <i name="SCISSOR">      0.00000000</i>
   <i type="int" name="NOMEGA">     0</i>
   <i type="int" name="NOMEGAR">     0</i>
   <i type="int" name="NBANDSGW">    -1</i>
   <i type="int" name="NBANDSO">    -1</i>
   <i type="int" name="NBANDSV">    -1</i>
   <i type="int" name="NELM">    60</i>
   <i type="int" name="DIM">     3</i>
   <i type="int" name="ANTIRES">     0</i>
   <i name="OMEGAMAX">    -30.00000000</i>
   <i name="OMEGATL">   -200.00000000</i>
   <i type="int" name="OMEGAGRID">     0</i>
   <i name="CSHIFT">     -0.10000000</i>
   <i type="logical" name="SELFENERGY"> F  </i>
   <i type="logical" name="LSPECTRAL"> F  </i>
   <i type="logical" name="ODDONLYGW"> F  </i>
   <i type="logical" name="EVENONLYGW"> F  </i>
   <i type="int" name="NKREDLFX">     1</i>
   <i type="int" name="NKREDLFY">     1</i>
   <i type="int" name="NKREDLFZ">     1</i>
   <i type="int" name="MAXMEM">  1800</i>
   <i type="int" name="TELESCOPE">     0</i>
  </separator>
 </parameters>
 <atominfo>
  <atoms>      41 </atoms>
  <types>       2 </types>
  <array name="atoms" >
   <dimension dim="1">ion</dimension>
   <field type="string">element</field>
   <field type="int">atomtype</field>
   <set>
    <rc><c>B </c><c>   1</c></rc>
    <rc><c>B </c><c>   1</c></rc>
    <rc><c>B </c><c>   1</c></rc>
    <rc><c>B </c><c>   1</c></rc>
    <rc><c>B </c><c>   1</c></rc>
    <rc><c>B </c><c>   1</c></rc>
    <rc><c>B </c><c>   1</c></rc>
    <rc><c>B </c><c>   1</c></rc>
    <rc><c>B </c><c>   1</c></rc>
    <rc><c>B </c><c>   1</c></rc>
    <rc><c>B </c><c>   1</c></rc>
    <rc><c>B </c><c>   1</c></rc>
    <rc><c>B </c><c>   1</c></rc>
    <rc><c>B </c><c>   1</c></rc>
    <rc><c>B </c><c>   1</c></rc>
    <rc><c>B </c><c>   1</c></rc>
    <rc><c>B </c><c>   1</c></rc>
    <rc><c>B </c><c>   1</c></rc>
    <rc><c>B </c><c>   1</c></rc>
    <rc><c>B </c><c>   1</c></rc>
    <rc><c>B </c><c>   1</c></rc>
    <rc><c>B </c><c>   1</c></rc>
    <rc><c>B </c><c>   1</c></rc>
    <rc><c>B </c><c>   1</c></rc>
    <rc><c>B </c><c>   1</c></rc>
    <rc><c>B </c><c>   1</c></rc>
    <rc><c>B </c><c>   1</c></rc>
    <rc><c>B </c><c>   1</c></rc>
    <rc><c>B </c><c>   1</c></rc>
    <rc><c>B </c><c>   1</c></rc>
    <rc><c>B </c><c>   1</c></rc>
    <rc><c>B </c><c>   1</c></rc>
    <rc><c>B </c><c>   1</c></rc>
    <rc><c>B </c><c>   1</c></rc>
    <rc><c>B </c><c>   1</c></rc>
    <rc><c>B </c><c>   1</c></rc>
    <rc><c>B </c><c>   1</c></rc>
    <rc><c>B </c><c>   1</c></rc>
    <rc><c>B </c><c>   1</c></rc>
    <rc><c>B </c><c>   1</c></rc>
    <rc><c>Si</c><c>   2</c></rc>
   </set>
  </array>
  <array name="atomtypes" >
   <dimension dim="1">type</dimension>
   <field type="int">atomspertype</field>
   <field type="string">element</field>
   <field>mass</field>
   <field>valence</field>
   <field type="string">pseudopotential</field>
   <set>
    <rc><c>  40</c><c>B </c><c>     10.81100000</c><c>      3.00000000</c><c>  PAW_PBE B 06Sep2000                   </c></rc>
    <rc><c>   1</c><c>Si</c><c>     28.08500000</c><c>      4.00000000</c><c>  PAW_PBE Si 05Jan2001                  </c></rc>
   </set>
  </array>
 </atominfo>
 <structure name="initialpos" >
  <crystal>
   <varray name="basis" >
    <v>      10.16000000       0.00000000       0.00000000 </v>
    <v>       0.00000000      11.76000000       0.00000000 </v>
    <v>       0.00000000       0.00000000      15.00000000 </v>
   </varray>
   <i name="volume">   1792.22400000 </i>
   <varray name="rec_basis" >
    <v>       0.09842520       0.00000000       0.00000000 </v>
    <v>       0.00000000       0.08503401       0.00000000 </v>
    <v>       0.00000000       0.00000000       0.06666667 </v>
   </varray>
  </crystal>
  <varray name="positions" >
   <v>       0.99811000       0.00000000       0.00000000 </v>
   <v>       0.16667000       0.00000000       0.00000000 </v>
   <v>       0.33522000       0.00000000       0.00000000 </v>
   <v>       0.08000000       0.12500000       0.00000000 </v>
   <v>       0.25334000       0.12500000       0.00000000 </v>
   <v>       0.99811000       0.25000000       0.00000000 </v>
   <v>       0.16667000       0.25000000       0.00000000 </v>
   <v>       0.33522000       0.25000000       0.00000000 </v>
   <v>       0.08000000       0.37500000       0.00000000 </v>
   <v>       0.25334000       0.37500000       0.00000000 </v>
   <v>       0.99811000       0.50000000       0.00000000 </v>
   <v>       0.16667000       0.50000000       0.00000000 </v>
   <v>       0.33522000       0.50000000       0.00000000 </v>
   <v>       0.08000000       0.62500000       0.00000000 </v>
   <v>       0.25334000       0.62500000       0.00000000 </v>
   <v>       0.99811000       0.75000000       0.00000000 </v>
   <v>       0.16667000       0.75000000       0.00000000 </v>
   <v>       0.33522000       0.75000000       0.00000000 </v>
   <v>       0.08000000       0.87500000       0.00000000 </v>
   <v>       0.25334000       0.87500000       0.00000000 </v>
   <v>       0.49811000       0.00000000       0.00000000 </v>
   <v>       0.66667000       0.00000000       0.00000000 </v>
   <v>       0.83522000       0.00000000       0.00000000 </v>
   <v>       0.58000000       0.12500000       0.00000000 </v>
   <v>       0.75334000       0.12500000       0.00000000 </v>
   <v>       0.49811000       0.25000000       0.00000000 </v>
   <v>       0.66667000       0.25000000       0.00000000 </v>
   <v>       0.83522000       0.25000000       0.00000000 </v>
   <v>       0.58000000       0.37500000       0.00000000 </v>
   <v>       0.75334000       0.37500000       0.00000000 </v>
   <v>       0.49811000       0.50000000       0.00000000 </v>
   <v>       0.66667000       0.50000000       0.00000000 </v>
   <v>       0.83522000       0.50000000       0.00000000 </v>
   <v>       0.58000000       0.62500000       0.00000000 </v>
   <v>       0.75334000       0.62500000       0.00000000 </v>
   <v>       0.49811000       0.75000000       0.00000000 </v>
   <v>       0.66667000       0.75000000       0.00000000 </v>
   <v>       0.83522000       0.75000000       0.00000000 </v>
   <v>       0.58000000       0.87500000       0.00000000 </v>
   <v>       0.75334000       0.87500000       0.00000000 </v>
   <v>       0.41667000       0.12500000       0.13333000 </v>
  </varray>
 </structure>
 <calculation>
  <scstep>
   <time name="dav">   18.25   18.26</time>
   <time name="total">   19.12   19.13</time>
   <dipole>
    <v name="dipole">      0.00000000       0.00000000      -0.00002493 </v>
    <i name="Tr[quadrupol]">  -2533.75185706 </i>
    <i name="Echarged">      0.00000000 </i>
    <i name="Edipol_quadrupol">      0.00000000 </i>
    <i name="Eion">      0.00000000 </i>
   </dipole>
   <energy>
    <i name="alphaZ">     64.04593885 </i>
    <i name="ewald">   8192.04429513 </i>
    <i name="hartreedc"> -10153.66580273 </i>
    <i name="XCdc">    260.63594277 </i>
    <i name="pawpsdc">   1828.11841984 </i>
    <i name="pawaedc">  -1776.31234012 </i>
    <i name="eentropy">      0.00591931 </i>
    <i name="bandstr">   -481.77460053 </i>
    <i name="atom">   2949.83092804 </i>
    <i name="e_fr_energy">    882.92870055 </i>
    <i name="e_wo_entrp">    882.92278124 </i>
    <i name="e_0_energy">    882.92672745 </i>
   </energy>
  </scstep>
  <scstep>
   <time name="dav">   27.66   27.66</time>
   <time name="total">   27.67   27.67</time>
   <dipole>
    <v name="dipole">      0.00000000       0.00000000      -0.00002493 </v>
    <i name="Tr[quadrupol]">  -2533.75185706 </i>
    <i name="Echarged">      0.00000000 </i>
    <i name="Edipol_quadrupol">      0.00000000 </i>
    <i name="Eion">      0.00000000 </i>
   </dipole>
   <energy>
    <i name="e_fr_energy">   -144.34117965 </i>
    <i name="e_wo_entrp">   -144.33995688 </i>
    <i name="e_0_energy">   -144.34077206 </i>
   </energy>
  </scstep>
  <scstep>
   <time name="dav">   23.51   23.51</time>
   <time name="total">   23.52   23.52</time>
   <dipole>
    <v name="dipole">      0.00000000       0.00000000      -0.00002493 </v>
    <i name="Tr[quadrupol]">  -2533.75185706 </i>
    <i name="Echarged">      0.00000000 </i>
    <i name="Edipol_quadrupol">      0.00000000 </i>
    <i name="Eion">      0.00000000 </i>
   </dipole>
   <energy>
    <i name="e_fr_energy">   -279.48674296 </i>
    <i name="e_wo_entrp">   -279.47892286 </i>
    <i name="e_0_energy">   -279.48413626 </i>
   </energy>
  </scstep>
  <scstep>
   <time name="dav">   26.45   26.45</time>
   <time name="total">   26.46   26.46</time>
   <dipole>
    <v name="dipole">      0.00000000       0.00000000      -0.00002493 </v>
    <i name="Tr[quadrupol]">  -2533.75185706 </i>
    <i name="Echarged">      0.00000000 </i>
    <i name="Edipol_quadrupol">      0.00000000 </i>
    <i name="Eion">      0.00000000 </i>
   </dipole>
   <energy>
    <i name="e_fr_energy">   -284.00071097 </i>
    <i name="e_wo_entrp">   -283.99444310 </i>
    <i name="e_0_energy">   -283.99862168 </i>
   </energy>
  </scstep>
  <scstep>
   <time name="dav">   26.91   26.91</time>
   <time name="total">   28.27   28.28</time>
   <dipole>
    <v name="dipole">      0.00000000       0.00000000      -0.00002493 </v>
    <i name="Tr[quadrupol]">  -2533.75185706 </i>
    <i name="Echarged">      0.00000000 </i>
    <i name="Edipol_quadrupol">      0.00000000 </i>
    <i name="Eion">      0.00000000 </i>
   </dipole>
   <energy>
    <i name="e_fr_energy">   -284.14187372 </i>
    <i name="e_wo_entrp">   -284.13585682 </i>
    <i name="e_0_energy">   -284.13986808 </i>
   </energy>
  </scstep>
  <scstep>
   <time name="dav">   24.19   24.20</time>
   <time name="total">   26.73   26.74</time>
   <dipole>
    <v name="dipole">      0.00000000       0.00000000      -0.33189545 </v>
    <i name="Tr[quadrupol]">  -2535.75233808 </i>
    <i name="Echarged">      0.00000000 </i>
    <i name="Edipol_quadrupol">      0.00000000 </i>
    <i name="Eion">      0.00000000 </i>
   </dipole>
   <energy>
    <i name="e_fr_energy">   -263.54816326 </i>
    <i name="e_wo_entrp">   -263.55678537 </i>
    <i name="e_0_energy">   -263.55103729 </i>
   </energy>
  </scstep>
  <scstep>
   <time name="dav">   23.42   23.43</time>
   <time name="total">   25.89   25.90</time>
   <dipole>
    <v name="dipole">      0.00000000       0.00000000      -0.44053683 </v>
    <i name="Tr[quadrupol]">  -2538.52315141 </i>
    <i name="Echarged">      0.00000000 </i>
    <i name="Edipol_quadrupol">      0.00000000 </i>
    <i name="Eion">      0.00000000 </i>
   </dipole>
   <energy>
    <i name="e_fr_energy">   -255.65662952 </i>
    <i name="e_wo_entrp">   -255.66696066 </i>
    <i name="e_0_energy">   -255.66007323 </i>
   </energy>
  </scstep>
  <scstep>
   <time name="dav">   24.79   24.79</time>
   <time name="total">   27.30   27.31</time>
   <dipole>
    <v name="dipole">      0.00000000       0.00000000      -0.30846700 </v>
    <i name="Tr[quadrupol]">  -2539.80304225 </i>
    <i name="Echarged">      0.00000000 </i>
    <i name="Edipol_quadrupol">      0.00000000 </i>
    <i name="Eion">      0.00000000 </i>
   </dipole>
   <energy>
    <i name="e_fr_energy">   -255.16503347 </i>
    <i name="e_wo_entrp">   -255.17059501 </i>
    <i name="e_0_energy">   -255.16688731 </i>
   </energy>
  </scstep>
  <scstep>
   <time name="dav">   23.60   23.60</time>
   <time name="total">   26.08   26.08</time>
   <dipole>
    <v name="dipole">      0.00000000       0.00000000      -0.30718800 </v>
    <i name="Tr[quadrupol]">  -2540.97716484 </i>
    <i name="Echarged">      0.00000000 </i>
    <i name="Edipol_quadrupol">      0.00000000 </i>
    <i name="Eion">      0.00000000 </i>
   </dipole>
   <energy>
    <i name="e_fr_energy">   -254.99841788 </i>
    <i name="e_wo_entrp">   -255.00452360 </i>
    <i name="e_0_energy">   -255.00045312 </i>
   </energy>
  </scstep>
  <scstep>
   <time name="dav">   23.40   23.41</time>
   <time name="total">   25.82   25.83</time>
   <dipole>
    <v name="dipole">      0.00000000       0.00000000      -0.26673607 </v>
    <i name="Tr[quadrupol]">  -2542.62093179 </i>
    <i name="Echarged">      0.00000000 </i>
    <i name="Edipol_quadrupol">      0.00000000 </i>
    <i name="Eion">      0.00000000 </i>
   </dipole>
   <energy>
    <i name="e_fr_energy">   -254.91601913 </i>
    <i name="e_wo_entrp">   -254.92110116 </i>
    <i name="e_0_energy">   -254.91771314 </i>
   </energy>
  </scstep>
  <scstep>
   <time name="dav">   23.49   23.49</time>
   <time name="total">   25.91   25.92</time>
   <dipole>
    <v name="dipole">      0.00000000       0.00000000      -0.24276537 </v>
    <i name="Tr[quadrupol]">  -2544.41920603 </i>
    <i name="Echarged">      0.00000000 </i>
    <i name="Edipol_quadrupol">      0.00000000 </i>
    <i name="Eion">      0.00000000 </i>
   </dipole>
   <energy>
    <i name="e_fr_energy">   -254.87690473 </i>
    <i name="e_wo_entrp">   -254.88187771 </i>
    <i name="e_0_energy">   -254.87856239 </i>
   </energy>
  </scstep>
  <scstep>
   <time name="dav">   23.44   23.44</time>
   <time name="total">   25.92   25.92</time>
   <dipole>
    <v name="dipole">      0.00000000       0.00000000      -0.23292291 </v>
    <i name="Tr[quadrupol]">  -2545.74305995 </i>
    <i name="Echarged">      0.00000000 </i>
    <i name="Edipol_quadrupol">      0.00000000 </i>
    <i name="Eion">      0.00000000 </i>
   </dipole>
   <energy>
    <i name="e_fr_energy">   -254.87799290 </i>
    <i name="e_wo_entrp">   -254.88320765 </i>
    <i name="e_0_energy">   -254.87973115 </i>
   </energy>
  </scstep>
  <scstep>
   <time name="dav">   23.18   23.19</time>
   <time name="total">   25.65   25.66</time>
   <dipole>
    <v name="dipole">      0.00000000       0.00000000       0.01755476 </v>
    <i name="Tr[quadrupol]">  -2546.91147330 </i>
    <i name="Echarged">      0.00000000 </i>
    <i name="Edipol_quadrupol">      0.00000000 </i>
    <i name="Eion">      0.00000000 </i>
   </dipole>
   <energy>
    <i name="e_fr_energy">   -254.88091052 </i>
    <i name="e_wo_entrp">   -254.88588023 </i>
    <i name="e_0_energy">   -254.88256709 </i>
   </energy>
  </scstep>
  <scstep>
   <time name="dav">   23.38   23.38</time>
   <time name="total">   25.85   25.85</time>
   <dipole>
    <v name="dipole">      0.00000000       0.00000000       0.11786763 </v>
    <i name="Tr[quadrupol]">  -2547.30597823 </i>
    <i name="Echarged">      0.00000000 </i>
    <i name="Edipol_quadrupol">      0.00000000 </i>
    <i name="Eion">      0.00000000 </i>
   </dipole>
   <energy>
    <i name="e_fr_energy">   -254.88255968 </i>
    <i name="e_wo_entrp">   -254.88750863 </i>
    <i name="e_0_energy">   -254.88420933 </i>
   </energy>
  </scstep>
  <scstep>
   <time name="dav">   22.16   22.16</time>
   <time name="total">   24.60   24.61</time>
   <dipole>
    <v name="dipole">      0.00000000       0.00000000       0.07449944 </v>
    <i name="Tr[quadrupol]">  -2547.66611518 </i>
    <i name="Echarged">      0.00000000 </i>
    <i name="Edipol_quadrupol">      0.00000000 </i>
    <i name="Eion">      0.00000000 </i>
   </dipole>
   <energy>
    <i name="e_fr_energy">   -254.88364541 </i>
    <i name="e_wo_entrp">   -254.88876335 </i>
    <i name="e_0_energy">   -254.88535139 </i>
   </energy>
  </scstep>
  <scstep>
   <time name="dav">   22.33   22.33</time>
   <time name="total">   24.84   24.84</time>
   <dipole>
    <v name="dipole">      0.00000000       0.00000000      -0.02514856 </v>
    <i name="Tr[quadrupol]">  -2548.28977391 </i>
    <i name="Echarged">      0.00000000 </i>
    <i name="Edipol_quadrupol">      0.00000000 </i>
    <i name="Eion">      0.00000000 </i>
   </dipole>
   <energy>
    <i name="e_fr_energy">   -254.88683194 </i>
    <i name="e_wo_entrp">   -254.89201366 </i>
    <i name="e_0_energy">   -254.88855918 </i>
   </energy>
  </scstep>
  <scstep>
   <time name="dav">   22.50   22.50</time>
   <time name="total">   25.00   25.00</time>
   <dipole>
    <v name="dipole">      0.00000000       0.00000000      -0.06743521 </v>
    <i name="Tr[quadrupol]">  -2548.58570090 </i>
    <i name="Echarged">      0.00000000 </i>
    <i name="Edipol_quadrupol">      0.00000000 </i>
    <i name="Eion">      0.00000000 </i>
   </dipole>
   <energy>
    <i name="e_fr_energy">   -254.88915989 </i>
    <i name="e_wo_entrp">   -254.89429572 </i>
    <i name="e_0_energy">   -254.89087183 </i>
   </energy>
  </scstep>
  <scstep>
   <time name="dav">   22.10   22.10</time>
   <time name="total">   24.58   24.59</time>
   <dipole>
    <v name="dipole">      0.00000000       0.00000000      -0.12129682 </v>
    <i name="Tr[quadrupol]">  -2548.86245014 </i>
    <i name="Echarged">      0.00000000 </i>
    <i name="Edipol_quadrupol">      0.00000000 </i>
    <i name="Eion">      0.00000000 </i>
   </dipole>
   <energy>
    <i name="e_fr_energy">   -254.89295822 </i>
    <i name="e_wo_entrp">   -254.89807708 </i>
    <i name="e_0_energy">   -254.89466451 </i>
   </energy>
  </scstep>
  <scstep>
   <time name="dav">   20.11   20.11</time>
   <time name="total">   22.58   22.58</time>
   <dipole>
    <v name="dipole">      0.00000000       0.00000000      -0.14514682 </v>
    <i name="Tr[quadrupol]">  -2548.96465069 </i>
    <i name="Echarged">      0.00000000 </i>
    <i name="Edipol_quadrupol">      0.00000000 </i>
    <i name="Eion">      0.00000000 </i>
   </dipole>
   <energy>
    <i name="e_fr_energy">   -254.89488829 </i>
    <i name="e_wo_entrp">   -254.89999642 </i>
    <i name="e_0_energy">   -254.89659100 </i>
   </energy>
  </scstep>
  <scstep>
   <time name="dav">   20.40   20.41</time>
   <time name="total">   22.91   22.91</time>
   <dipole>
    <v name="dipole">      0.00000000       0.00000000      -0.18273782 </v>
    <i name="Tr[quadrupol]">  -2549.16228811 </i>
    <i name="Echarged">      0.00000000 </i>
    <i name="Edipol_quadrupol">      0.00000000 </i>
    <i name="Eion">      0.00000000 </i>
   </dipole>
   <energy>
    <i name="e_fr_energy">   -254.89784431 </i>
    <i name="e_wo_entrp">   -254.90296354 </i>
    <i name="e_0_energy">   -254.89955072 </i>
   </energy>
  </scstep>
  <scstep>
   <time name="dav">   17.94   17.94</time>
   <time name="total">   20.47   20.47</time>
   <dipole>
    <v name="dipole">      0.00000000       0.00000000      -0.19254750 </v>
    <i name="Tr[quadrupol]">  -2549.24769308 </i>
    <i name="Echarged">      0.00000000 </i>
    <i name="Edipol_quadrupol">      0.00000000 </i>
    <i name="Eion">      0.00000000 </i>
   </dipole>
   <energy>
    <i name="e_fr_energy">   -254.89843930 </i>
    <i name="e_wo_entrp">   -254.90356184 </i>
    <i name="e_0_energy">   -254.90014681 </i>
   </energy>
  </scstep>
  <scstep>
   <time name="dav">   16.76   16.76</time>
   <time name="total">   19.31   19.31</time>
   <dipole>
    <v name="dipole">      0.00000000       0.00000000      -0.19330076 </v>
    <i name="Tr[quadrupol]">  -2549.19163892 </i>
    <i name="Echarged">      0.00000000 </i>
    <i name="Edipol_quadrupol">      0.00000000 </i>
    <i name="Eion">      0.00000000 </i>
   </dipole>
   <energy>
    <i name="e_fr_energy">   -254.89865387 </i>
    <i name="e_wo_entrp">   -254.90376896 </i>
    <i name="e_0_energy">   -254.90035890 </i>
   </energy>
  </scstep>
  <scstep>
   <time name="dav">   17.24   17.24</time>
   <time name="total">   19.74   19.74</time>
   <dipole>
    <v name="dipole">      0.00000000       0.00000000      -0.19648930 </v>
    <i name="Tr[quadrupol]">  -2549.48892072 </i>
    <i name="Echarged">      0.00000000 </i>
    <i name="Edipol_quadrupol">      0.00000000 </i>
    <i name="Eion">      0.00000000 </i>
   </dipole>
   <energy>
    <i name="e_fr_energy">   -254.89884409 </i>
    <i name="e_wo_entrp">   -254.90395426 </i>
    <i name="e_0_energy">   -254.90054748 </i>
   </energy>
  </scstep>
  <scstep>
   <time name="dav">   17.52   17.52</time>
   <time name="total">   18.64   18.64</time>
   <dipole>
    <v name="dipole">      0.00000000       0.00000000      -0.19443986 </v>
    <i name="Tr[quadrupol]">  -2549.49201193 </i>
    <i name="Echarged">      0.00000000 </i>
    <i name="Edipol_quadrupol">      0.00000000 </i>
    <i name="Eion">      0.00000000 </i>
   </dipole>
   <energy>
    <i name="alphaZ">     63.10082388 </i>
    <i name="ewald">   8192.04429513 </i>
    <i name="hartreedc"> -10667.66626472 </i>
    <i name="XCdc">    275.67139811 </i>
    <i name="pawpsdc">  10791.16509778 </i>
    <i name="pawaedc"> -10742.71420790 </i>
    <i name="eentropy">      0.00510792 </i>
    <i name="bandstr">  -1116.33605315 </i>
    <i name="atom">   2949.83092804 </i>
    <i name="e_fr_energy">   -254.89887490 </i>
    <i name="e_wo_entrp">   -254.90398283 </i>
    <i name="e_0_energy">   -254.90057754 </i>
   </energy>
  </scstep>
  <structure>
   <crystal>
    <varray name="basis" >
     <v>      10.16000000       0.00000000       0.00000000 </v>
     <v>       0.00000000      11.76000000       0.00000000 </v>
     <v>       0.00000000       0.00000000      15.00000000 </v>
    </varray>
    <i name="volume">   1792.22400000 </i>
    <varray name="rec_basis" >
     <v>       0.09842520       0.00000000       0.00000000 </v>
     <v>       0.00000000       0.08503401       0.00000000 </v>
     <v>       0.00000000       0.00000000       0.06666667 </v>
    </varray>
   </crystal>
   <varray name="positions" >
    <v>       0.99811000       0.00000000       0.00000000 </v>
    <v>       0.16667000       0.00000000       0.00000000 </v>
    <v>       0.33522000       0.00000000       0.00000000 </v>
    <v>       0.08000000       0.12500000       0.00000000 </v>
    <v>       0.25334000       0.12500000       0.00000000 </v>
    <v>       0.99811000       0.25000000       0.00000000 </v>
    <v>       0.16667000       0.25000000       0.00000000 </v>
    <v>       0.33522000       0.25000000       0.00000000 </v>
    <v>       0.08000000       0.37500000       0.00000000 </v>
    <v>       0.25334000       0.37500000       0.00000000 </v>
    <v>       0.99811000       0.50000000       0.00000000 </v>
    <v>       0.16667000       0.50000000       0.00000000 </v>
    <v>       0.33522000       0.50000000       0.00000000 </v>
    <v>       0.08000000       0.62500000       0.00000000 </v>
    <v>       0.25334000       0.62500000       0.00000000 </v>
    <v>       0.99811000       0.75000000       0.00000000 </v>
    <v>       0.16667000       0.75000000       0.00000000 </v>
    <v>       0.33522000       0.75000000       0.00000000 </v>
    <v>       0.08000000       0.87500000       0.00000000 </v>
    <v>       0.25334000       0.87500000       0.00000000 </v>
    <v>       0.49811000       0.00000000       0.00000000 </v>
    <v>       0.66667000       0.00000000       0.00000000 </v>
    <v>       0.83522000       0.00000000       0.00000000 </v>
    <v>       0.58000000       0.12500000       0.00000000 </v>
    <v>       0.75334000       0.12500000       0.00000000 </v>
    <v>       0.49811000       0.25000000       0.00000000 </v>
    <v>       0.66667000       0.25000000       0.00000000 </v>
    <v>       0.83522000       0.25000000       0.00000000 </v>
    <v>       0.58000000       0.37500000       0.00000000 </v>
    <v>       0.75334000       0.37500000       0.00000000 </v>
    <v>       0.49811000       0.50000000       0.00000000 </v>
    <v>       0.66667000       0.50000000       0.00000000 </v>
    <v>       0.83522000       0.50000000       0.00000000 </v>
    <v>       0.58000000       0.62500000       0.00000000 </v>
    <v>       0.75334000       0.62500000       0.00000000 </v>
    <v>       0.49811000       0.75000000       0.00000000 </v>
    <v>       0.66667000       0.75000000       0.00000000 </v>
    <v>       0.83522000       0.75000000       0.00000000 </v>
    <v>       0.58000000       0.87500000       0.00000000 </v>
    <v>       0.75334000       0.87500000       0.00000000 </v>
    <v>       0.41667000       0.12500000       0.13333000 </v>
   </varray>
  </structure>
  <varray name="forces" >
   <v>       0.42201240       0.04285569      -0.04504672 </v>
   <v>      -0.69174746      -0.19407238      -0.04801556 </v>
   <v>       0.38253271       0.36455807       0.35612147 </v>
   <v>      -0.14579539       0.00000000       0.22258955 </v>
   <v>       0.58770186       0.00000000       0.38032292 </v>
   <v>       0.42201240      -0.04285569      -0.04504672 </v>
   <v>      -0.69174746       0.19407238      -0.04801556 </v>
   <v>       0.38253271      -0.36455807       0.35612147 </v>
   <v>       0.21578866      -0.31759523      -0.06678982 </v>
   <v>      -0.15580259       0.20203280       0.18607340 </v>
   <v>      -0.00488995       0.17471915      -0.03680832 </v>
   <v>       0.01480686       0.06339572       0.01701747 </v>
   <v>       0.04304902      -0.04681147      -0.02228362 </v>
   <v>       0.01700807       0.00000000       0.05484965 </v>
   <v>      -0.10398599       0.00000000       0.00238559 </v>
   <v>      -0.00488995      -0.17471915      -0.03680832 </v>
   <v>       0.01480686      -0.06339572       0.01701747 </v>
   <v>       0.04304902       0.04681147      -0.02228362 </v>
   <v>       0.21578866       0.31759523      -0.06678982 </v>
   <v>      -0.15580259      -0.20203280       0.18607340 </v>
   <v>      -0.37584516       0.36439458       0.35607929 </v>
   <v>       0.67754139      -0.19407218      -0.04801465 </v>
   <v>      -0.41530475       0.04284665      -0.04505395 </v>
   <v>      -0.58746915       0.00000000       0.38045021 </v>
   <v>       0.14618429       0.00000000       0.22263648 </v>
   <v>      -0.37584516      -0.36439458       0.35607929 </v>
   <v>       0.67754139       0.19407218      -0.04801465 </v>
   <v>      -0.41530475      -0.04284665      -0.04505395 </v>
   <v>       0.15617075       0.20194883       0.18610876 </v>
   <v>      -0.21537279      -0.31755638      -0.06679169 </v>
   <v>      -0.03634509      -0.04676945      -0.02228987 </v>
   <v>      -0.02894753       0.06339396       0.01701075 </v>
   <v>       0.01159693       0.17470976      -0.03679424 </v>
   <v>       0.10433934       0.00000000       0.00239218 </v>
   <v>      -0.01659903       0.00000000       0.05485275 </v>
   <v>      -0.03634509       0.04676945      -0.02228987 </v>
   <v>      -0.02894753      -0.06339396       0.01701075 </v>
   <v>       0.01159693      -0.17470976      -0.03679424 </v>
   <v>       0.15617075      -0.20194883       0.18610876 </v>
   <v>      -0.21537279       0.31755638      -0.06679169 </v>
   <v>       0.00012917       0.00000000      -2.68152474 </v>
  </varray>
  <varray name="stress" >
   <v>      -3.88216845       0.00000000      -0.00537920 </v>
   <v>       0.00000000      -7.36496203       0.00000000 </v>
   <v>      -0.00537921       0.00000000      -4.98156868 </v>
  </varray>
  <energy>
   <i name="e_fr_energy">   -254.89887490 </i>
   <i name="e_wo_entrp">   -254.90057754 </i>
   <i name="e_0_energy">      0.00510792 </i>
  </energy>
  <time name="totalsc">  609.10  609.21</time>
 </calculation>
 <calculation>
  <scstep>
   <time name="dav">   20.41   20.41</time>
   <time name="total">   22.92   22.92</time>
   <dipole>
    <v name="dipole">      0.00000000       0.00000000      -0.19205243 </v>
    <i name="Tr[quadrupol]">  -2546.84346567 </i>
    <i name="Echarged">      0.00000000 </i>
    <i name="Edipol_quadrupol">      0.00000000 </i>
    <i name="Eion">      0.00000000 </i>
   </dipole>
   <energy>
    <i name="alphaZ">     63.10990774 </i>
    <i name="ewald">   8230.02956876 </i>
    <i name="hartreedc"> -10702.12988552 </i>
    <i name="XCdc">    276.06545371 </i>
    <i name="pawpsdc">  10791.36124275 </i>
    <i name="pawaedc"> -10742.91030480 </i>
    <i name="eentropy">      0.00650804 </i>
    <i name="bandstr">  -1120.66173425 </i>
    <i name="atom">   2949.83092804 </i>
    <i name="e_fr_energy">   -255.29831552 </i>
    <i name="e_wo_entrp">   -255.30482357 </i>
    <i name="e_0_energy">   -255.30048487 </i>
   </energy>
  </scstep>
  <scstep>
   <time name="dav">   23.99   23.99</time>
   <time name="total">   26.44   26.44</time>
   <dipole>
    <v name="dipole">      0.00000000       0.00000000      -0.15250231 </v>
    <i name="Tr[quadrupol]">  -2546.80543670 </i>
    <i name="Echarged">      0.00000000 </i>
    <i name="Edipol_quadrupol">      0.00000000 </i>
    <i name="Eion">      0.00000000 </i>
   </dipole>
   <energy>
    <i name="e_fr_energy">   -255.26264382 </i>
    <i name="e_wo_entrp">   -255.26770319 </i>
    <i name="e_0_energy">   -255.26433027 </i>
   </energy>
  </scstep>
  <scstep>
   <time name="dav">   24.75   24.75</time>
   <time name="total">   27.14   27.14</time>
   <dipole>
    <v name="dipole">      0.00000000       0.00000000      -0.14608085 </v>
    <i name="Tr[quadrupol]">  -2546.75469250 </i>
    <i name="Echarged">      0.00000000 </i>
    <i name="Edipol_quadrupol">      0.00000000 </i>
    <i name="Eion">      0.00000000 </i>
   </dipole>
   <energy>
    <i name="e_fr_energy">   -255.24336610 </i>
    <i name="e_wo_entrp">   -255.24829207 </i>
    <i name="e_0_energy">   -255.24500809 </i>
   </energy>
  </scstep>
  <scstep>
   <time name="dav">   23.98   23.98</time>
   <time name="total">   26.39   26.40</time>
   <dipole>
    <v name="dipole">      0.00000000       0.00000000      -0.14546635 </v>
    <i name="Tr[quadrupol]">  -2546.70993329 </i>
    <i name="Echarged">      0.00000000 </i>
    <i name="Edipol_quadrupol">      0.00000000 </i>
    <i name="Eion">      0.00000000 </i>
   </dipole>
   <energy>
    <i name="e_fr_energy">   -255.24189546 </i>
    <i name="e_wo_entrp">   -255.24684821 </i>
    <i name="e_0_energy">   -255.24354637 </i>
   </energy>
  </scstep>
  <scstep>
   <time name="dav">   24.48   24.48</time>
   <time name="total">   26.92   26.92</time>
   <dipole>
    <v name="dipole">      0.00000000       0.00000000      -0.14097372 </v>
    <i name="Tr[quadrupol]">  -2546.69161947 </i>
    <i name="Echarged">      0.00000000 </i>
    <i name="Edipol_quadrupol">      0.00000000 </i>
    <i name="Eion">      0.00000000 </i>
   </dipole>
   <energy>
    <i name="e_fr_energy">   -255.24217762 </i>
    <i name="e_wo_entrp">   -255.24710350 </i>
    <i name="e_0_energy">   -255.24381958 </i>
   </energy>
  </scstep>
  <scstep>
   <time name="dav">   19.95   19.95</time>
   <time name="total">   22.45   22.46</time>
   <dipole>
    <v name="dipole">      0.00000000       0.00000000      -0.13703709 </v>
    <i name="Tr[quadrupol]">  -2546.67327983 </i>
    <i name="Echarged">      0.00000000 </i>
    <i name="Edipol_quadrupol">      0.00000000 </i>
    <i name="Eion">      0.00000000 </i>
   </dipole>
   <energy>
    <i name="e_fr_energy">   -255.24246881 </i>
    <i name="e_wo_entrp">   -255.24741360 </i>
    <i name="e_0_energy">   -255.24411707 </i>
   </energy>
  </scstep>
  <scstep>
   <time name="dav">   17.95   17.95</time>
   <time name="total">   20.42   20.42</time>
   <dipole>
    <v name="dipole">      0.00000000       0.00000000      -0.13300293 </v>
    <i name="Tr[quadrupol]">  -2546.65574436 </i>
    <i name="Echarged">      0.00000000 </i>
    <i name="Edipol_quadrupol">      0.00000000 </i>
    <i name="Eion">      0.00000000 </i>
   </dipole>
   <energy>
    <i name="e_fr_energy">   -255.24272150 </i>
    <i name="e_wo_entrp">   -255.24765312 </i>
    <i name="e_0_energy">   -255.24436538 </i>
   </energy>
  </scstep>
  <scstep>
   <time name="dav">   17.85   17.85</time>
   <time name="total">   20.31   20.31</time>
   <dipole>
    <v name="dipole">      0.00000000       0.00000000      -0.12977945 </v>
    <i name="Tr[quadrupol]">  -2546.61772327 </i>
    <i name="Echarged">      0.00000000 </i>
    <i name="Edipol_quadrupol">      0.00000000 </i>
    <i name="Eion">      0.00000000 </i>
   </dipole>
   <energy>
    <i name="e_fr_energy">   -255.24292637 </i>
    <i name="e_wo_entrp">   -255.24785057 </i>
    <i name="e_0_energy">   -255.24456777 </i>
   </energy>
  </scstep>
  <scstep>
   <time name="dav">   17.89   17.89</time>
   <time name="total">   20.38   20.38</time>
   <dipole>
    <v name="dipole">      0.00000000       0.00000000      -0.12582073 </v>
    <i name="Tr[quadrupol]">  -2546.57658427 </i>
    <i name="Echarged">      0.00000000 </i>
    <i name="Edipol_quadrupol">      0.00000000 </i>
    <i name="Eion">      0.00000000 </i>
   </dipole>
   <energy>
    <i name="e_fr_energy">   -255.24312908 </i>
    <i name="e_wo_entrp">   -255.24805374 </i>
    <i name="e_0_energy">   -255.24477063 </i>
   </energy>
  </scstep>
  <scstep>
   <time name="dav">   18.23   18.23</time>
   <time name="total">   20.72   20.72</time>
   <dipole>
    <v name="dipole">      0.00000000       0.00000000      -0.12227257 </v>
    <i name="Tr[quadrupol]">  -2546.51434950 </i>
    <i name="Echarged">      0.00000000 </i>
    <i name="Edipol_quadrupol">      0.00000000 </i>
    <i name="Eion">      0.00000000 </i>
   </dipole>
   <energy>
    <i name="e_fr_energy">   -255.24326859 </i>
    <i name="e_wo_entrp">   -255.24819657 </i>
    <i name="e_0_energy">   -255.24491125 </i>
   </energy>
  </scstep>
  <scstep>
   <time name="dav">   17.42   17.42</time>
   <time name="total">   18.54   18.54</time>
   <dipole>
    <v name="dipole">      0.00000000       0.00000000      -0.12082495 </v>
    <i name="Tr[quadrupol]">  -2546.46126225 </i>
    <i name="Echarged">      0.00000000 </i>
    <i name="Edipol_quadrupol">      0.00000000 </i>
    <i name="Eion">      0.00000000 </i>
   </dipole>
   <energy>
    <i name="alphaZ">     62.36129424 </i>
    <i name="ewald">   8230.02956876 </i>
    <i name="hartreedc"> -10699.70594071 </i>
    <i name="XCdc">    276.07497248 </i>
    <i name="pawpsdc">  10871.62475093 </i>
    <i name="pawaedc"> -10823.20572521 </i>
    <i name="eentropy">      0.00492509 </i>
    <i name="bandstr">  -1122.25809418 </i>
    <i name="atom">   2949.83092804 </i>
    <i name="e_fr_energy">   -255.24332057 </i>
    <i name="e_wo_entrp">   -255.24824565 </i>
    <i name="e_0_energy">   -255.24496226 </i>
   </energy>
  </scstep>
  <structure>
   <crystal>
    <varray name="basis" >
     <v>      10.16000000       0.00000000       0.00000000 </v>
     <v>       0.00000000      11.76000000       0.00000000 </v>
     <v>       0.00000000       0.00000000      15.00000000 </v>
    </varray>
    <i name="volume">   1792.22400000 </i>
    <varray name="rec_basis" >
     <v>       0.09842520       0.00000000       0.00000000 </v>
     <v>       0.00000000       0.08503401       0.00000000 </v>
     <v>       0.00000000       0.00000000       0.06666667 </v>
    </varray>
   </crystal>
   <varray name="positions" >
    <v>       0.00011384       0.00017581      -0.00014488 </v>
    <v>       0.16338538      -0.00079614      -0.00015443 </v>
    <v>       0.33703638       0.00149551       0.00114535 </v>
    <v>       0.07930772       0.12500000       0.00071589 </v>
    <v>       0.25613058       0.12500000       0.00122319 </v>
    <v>       0.00011384       0.24982419      -0.00014488 </v>
    <v>       0.16338538       0.25079614      -0.00015443 </v>
    <v>       0.33703638       0.24850449       0.00114535 </v>
    <v>       0.08102463       0.37369714      -0.00021481 </v>
    <v>       0.25260020       0.37582879       0.00059844 </v>
    <v>       0.99808678       0.50071674      -0.00011838 </v>
    <v>       0.16674031       0.50026007       0.00005473 </v>
    <v>       0.33542441       0.49980797      -0.00007167 </v>
    <v>       0.08008076       0.62500000       0.00017641 </v>
    <v>       0.25284624       0.62500000       0.00000767 </v>
    <v>       0.99808678       0.74928326      -0.00011838 </v>
    <v>       0.16674031       0.74973993       0.00005473 </v>
    <v>       0.33542441       0.75019203      -0.00007167 </v>
    <v>       0.08102463       0.87630286      -0.00021481 </v>
    <v>       0.25260020       0.87417121       0.00059844 </v>
    <v>       0.49632538       0.00149484       0.00114521 </v>
    <v>       0.66988716      -0.00079614      -0.00015442 </v>
    <v>       0.83324801       0.00017577      -0.00014490 </v>
    <v>       0.57721052       0.12500000       0.00122360 </v>
    <v>       0.75403413       0.12500000       0.00071604 </v>
    <v>       0.49632538       0.24850516       0.00114521 </v>
    <v>       0.66988716       0.25079614      -0.00015442 </v>
    <v>       0.83324801       0.24982423      -0.00014490 </v>
    <v>       0.58074154       0.37582845       0.00059856 </v>
    <v>       0.75231735       0.37369730      -0.00021481 </v>
    <v>       0.49793742       0.49980814      -0.00007169 </v>
    <v>       0.66653255       0.50026006       0.00005471 </v>
    <v>       0.83527507       0.50071671      -0.00011834 </v>
    <v>       0.58049543       0.62500000       0.00000769 </v>
    <v>       0.75326118       0.62500000       0.00017642 </v>
    <v>       0.49793742       0.75019186      -0.00007169 </v>
    <v>       0.66653255       0.74973994       0.00005471 </v>
    <v>       0.83527507       0.74928329      -0.00011834 </v>
    <v>       0.58074154       0.87417155       0.00059856 </v>
    <v>       0.75231735       0.87630270      -0.00021481 </v>
    <v>       0.41667061       0.12500000       0.12470574 </v>
   </varray>
  </structure>
  <varray name="forces" >
   <v>      -0.90702442       0.07157008      -0.05092606 </v>
   <v>       0.62692502       0.23287454       0.01664915 </v>
   <v>      -0.73288769      -0.25067280       0.21204590 </v>
   <v>       0.25570640      -0.00000000       0.20366579 </v>
   <v>      -0.18156906      -0.00000000       0.27556481 </v>
   <v>      -0.90702442      -0.07157008      -0.05092606 </v>
   <v>       0.62692502      -0.23287454       0.01664915 </v>
   <v>      -0.73288769       0.25067280       0.21204590 </v>
   <v>      -0.08218411       0.47163443      -0.05743537 </v>
   <v>       0.14816446      -0.35848124       0.17186371 </v>
   <v>       0.00687351      -0.13456425      -0.03619704 </v>
   <v>       0.01706883       0.02707689       0.01418722 </v>
   <v>      -0.11495816       0.05375203      -0.00825048 </v>
   <v>       0.04486875      -0.00000000       0.05389365 </v>
   <v>       0.05608734      -0.00000000      -0.00820495 </v>
   <v>       0.00687351       0.13456425      -0.03619704 </v>
   <v>       0.01706883      -0.02707689       0.01418722 </v>
   <v>      -0.11495816      -0.05375203      -0.00825048 </v>
   <v>      -0.08218411      -0.47163443      -0.05743537 </v>
   <v>       0.14816446       0.35848124       0.17186371 </v>
   <v>       0.72880516      -0.25383698       0.21446308 </v>
   <v>      -0.60506626       0.23972050       0.01651606 </v>
   <v>       0.89938391       0.07151790      -0.05094782 </v>
   <v>       0.17778833      -0.00000000       0.27402809 </v>
   <v>      -0.25476256      -0.00000000       0.20576515 </v>
   <v>       0.72880516       0.25383698       0.21446308 </v>
   <v>      -0.60506626      -0.23972050       0.01651606 </v>
   <v>       0.89938391      -0.07151790      -0.05094782 </v>
   <v>      -0.14900454      -0.36782197       0.17244721 </v>
   <v>       0.07964446       0.45900633      -0.05768170 </v>
   <v>       0.10961450       0.05366197      -0.00327852 </v>
   <v>      -0.01002476       0.02726791       0.01422086 </v>
   <v>      -0.01256377      -0.13659081      -0.03837720 </v>
   <v>      -0.05567931      -0.00000000      -0.00827125 </v>
   <v>      -0.04255039      -0.00000000       0.05394344 </v>
   <v>       0.10961450      -0.05366197      -0.00327852 </v>
   <v>      -0.01002476      -0.02726791       0.01422086 </v>
   <v>      -0.01256377       0.13659081      -0.03837720 </v>
   <v>      -0.14900454       0.36782197       0.17244721 </v>
   <v>       0.07964446      -0.45900633      -0.05768170 </v>
   <v>      -0.00542179      -0.00000000      -2.10898273 </v>
  </varray>
  <varray name="stress" >
   <v>      -2.86760898       0.00000000      -0.00763629 </v>
   <v>       0.00000000      -6.85083447       0.00000000 </v>
   <v>      -0.00763629       0.00000000      -3.65788543 </v>
  </varray>
  <energy>
   <i name="e_fr_energy">   -255.24332057 </i>
   <i name="e_wo_entrp">   -255.24496226 </i>
   <i name="e_0_energy">      0.00492509 </i>
  </energy>
  <time name="totalsc">  278.65  278.69</time>
 </calculation>
 <calculation>
  <scstep>
   <time name="dav">   22.10   22.11</time>
   <time name="total">   24.57   24.57</time>
   <dipole>
    <v name="dipole">      0.00000000       0.00000000      -0.11980543 </v>
    <i name="Tr[quadrupol]">  -2546.41165424 </i>
    <i name="Echarged">      0.00000000 </i>
    <i name="Edipol_quadrupol">      0.00000000 </i>
    <i name="Eion">      0.00000000 </i>
   </dipole>
   <energy>
    <i name="alphaZ">     62.23963111 </i>
    <i name="ewald">   8230.34708401 </i>
    <i name="hartreedc"> -10699.94194593 </i>
    <i name="XCdc">    276.07817078 </i>
    <i name="pawpsdc">  10871.63507179 </i>
    <i name="pawaedc"> -10823.21607935 </i>
    <i name="eentropy">      0.00493334 </i>
    <i name="bandstr">  -1122.22116547 </i>
    <i name="atom">   2949.83092804 </i>
    <i name="e_fr_energy">   -255.24337169 </i>
    <i name="e_wo_entrp">   -255.24830503 </i>
    <i name="e_0_energy">   -255.24501613 </i>
   </energy>
  </scstep>
  <scstep>
   <time name="dav">   17.40   17.40</time>
   <time name="total">   18.51   18.51</time>
   <dipole>
    <v name="dipole">      0.00000000       0.00000000      -0.11930998 </v>
    <i name="Tr[quadrupol]">  -2546.41002420 </i>
    <i name="Echarged">      0.00000000 </i>
    <i name="Edipol_quadrupol">      0.00000000 </i>
    <i name="Eion">      0.00000000 </i>
   </dipole>
   <energy>
    <i name="alphaZ">     62.24710432 </i>
    <i name="ewald">   8230.34708401 </i>
    <i name="hartreedc"> -10699.92588749 </i>
    <i name="XCdc">    276.07830862 </i>
    <i name="pawpsdc">  10871.93559210 </i>
    <i name="pawaedc"> -10823.51685856 </i>
    <i name="eentropy">      0.00492114 </i>
    <i name="bandstr">  -1122.24456539 </i>
    <i name="atom">   2949.83092804 </i>
    <i name="e_fr_energy">   -255.24337321 </i>
    <i name="e_wo_entrp">   -255.24829435 </i>
    <i name="e_0_energy">   -255.24501359 </i>
   </energy>
  </scstep>
  <structure>
   <crystal>
    <varray name="basis" >
     <v>      10.16000000       0.00000000       0.00000000 </v>
     <v>       0.00000000      11.76000000       0.00000000 </v>
     <v>       0.00000000       0.00000000      15.00000000 </v>
    </varray>
    <i name="volume">   1792.22400000 </i>
    <varray name="rec_basis" >
     <v>       0.09842520       0.00000000       0.00000000 </v>
     <v>       0.00000000       0.08503401       0.00000000 </v>
     <v>       0.00000000       0.00000000       0.06666667 </v>
    </varray>
   </crystal>
   <varray name="positions" >
    <v>       0.00012978       0.00017720      -0.00014603 </v>
    <v>       0.16335924      -0.00080247      -0.00015566 </v>
    <v>       0.33705083       0.00150741       0.00115446 </v>
    <v>       0.07930221       0.12500000       0.00072158 </v>
    <v>       0.25615279       0.12500000       0.00123292 </v>
    <v>       0.00012978       0.24982280      -0.00014603 </v>
    <v>       0.16335924       0.25080247      -0.00015566 </v>
    <v>       0.33705083       0.24849259       0.00115446 </v>
    <v>       0.08103278       0.37368677      -0.00021652 </v>
    <v>       0.25259432       0.37583539       0.00060321 </v>
    <v>       0.99808660       0.50072245      -0.00011932 </v>
    <v>       0.16674087       0.50026214       0.00005517 </v>
    <v>       0.33542604       0.49980644      -0.00007224 </v>
    <v>       0.08008140       0.62500000       0.00017781 </v>
    <v>       0.25284232       0.62500000       0.00000773 </v>
    <v>       0.99808660       0.74927755      -0.00011932 </v>
    <v>       0.16674087       0.74973786       0.00005517 </v>
    <v>       0.33542604       0.75019356      -0.00007224 </v>
    <v>       0.08103278       0.87631323      -0.00021652 </v>
    <v>       0.25259432       0.87416461       0.00060321 </v>
    <v>       0.49631118       0.00150674       0.00115433 </v>
    <v>       0.66991276      -0.00080247      -0.00015565 </v>
    <v>       0.83323232       0.00017717      -0.00014605 </v>
    <v>       0.57718833       0.12500000       0.00123333 </v>
    <v>       0.75403965       0.12500000       0.00072174 </v>
    <v>       0.49631118       0.24849326       0.00115433 </v>
    <v>       0.66991276       0.25080247      -0.00015565 </v>
    <v>       0.83323232       0.24982283      -0.00014605 </v>
    <v>       0.58074744       0.37583504       0.00060332 </v>
    <v>       0.75230921       0.37368693      -0.00021652 </v>
    <v>       0.49793605       0.49980661      -0.00007226 </v>
    <v>       0.66653145       0.50026213       0.00005514 </v>
    <v>       0.83527550       0.50072241      -0.00011928 </v>
    <v>       0.58049938       0.62500000       0.00000775 </v>
    <v>       0.75326056       0.62500000       0.00017782 </v>
    <v>       0.49793605       0.75019339      -0.00007226 </v>
    <v>       0.66653145       0.74973787       0.00005514 </v>
    <v>       0.83527550       0.74927759      -0.00011928 </v>
    <v>       0.58074744       0.87416496       0.00060332 </v>
    <v>       0.75230921       0.87631307      -0.00021652 </v>
    <v>       0.41667062       0.12500000       0.12463712 </v>
   </varray>
  </structure>
  <varray name="forces" >
   <v>      -0.91715213       0.07157669      -0.05065467 </v>
   <v>       0.63674713       0.23568926       0.01720660 </v>
   <v>      -0.74028175      -0.25468866       0.21109393 </v>
   <v>       0.25819713       0.00000000       0.20342193 </v>
   <v>      -0.18631223       0.00000000       0.27472097 </v>
   <v>      -0.91715213      -0.07157669      -0.05065467 </v>
   <v>       0.63674713      -0.23568926       0.01720660 </v>
   <v>      -0.74028175       0.25468866       0.21109393 </v>
   <v>      -0.08416782       0.47693344      -0.05763277 </v>
   <v>       0.15020992      -0.36234680       0.17169477 </v>
   <v>       0.00687388      -0.13621237      -0.03651584 </v>
   <v>       0.01754527       0.02682819       0.01390937 </v>
   <v>      -0.11642168       0.05468355      -0.00774816 </v>
   <v>       0.04525971       0.00000000       0.05363962 </v>
   <v>       0.05731540       0.00000000      -0.00853131 </v>
   <v>       0.00687388       0.13621237      -0.03651584 </v>
   <v>       0.01754527      -0.02682819       0.01390937 </v>
   <v>      -0.11642168      -0.05468355      -0.00774816 </v>
   <v>      -0.08416782      -0.47693344      -0.05763277 </v>
   <v>       0.15020992       0.36234680       0.17169477 </v>
   <v>       0.73642133      -0.25786014       0.21350620 </v>
   <v>      -0.61572074       0.24247532       0.01698904 </v>
   <v>       0.90891609       0.07152168      -0.05126627 </v>
   <v>       0.18279202       0.00000000       0.27318934 </v>
   <v>      -0.25699203       0.00000000       0.20552355 </v>
   <v>       0.73642133       0.25786014       0.21350620 </v>
   <v>      -0.61572074      -0.24247532       0.01698904 </v>
   <v>       0.90891609      -0.07152168      -0.05126627 </v>
   <v>      -0.15080520      -0.37168557       0.17227619 </v>
   <v>       0.08136342       0.46586280      -0.05762691 </v>
   <v>       0.11112950       0.05436649      -0.00343142 </v>
   <v>      -0.01008414       0.02702487       0.01394243 </v>
   <v>      -0.01237912      -0.13823582      -0.03869713 </v>
   <v>      -0.05665691       0.00000000      -0.00859872 </v>
   <v>      -0.04269314       0.00000000       0.05368989 </v>
   <v>       0.11112950      -0.05436649      -0.00343142 </v>
   <v>      -0.01008414      -0.02702487       0.01394243 </v>
   <v>      -0.01237912       0.13823582      -0.03869713 </v>
   <v>      -0.15080520       0.37168557       0.17227619 </v>
   <v>       0.08136342      -0.46586280      -0.05762691 </v>
   <v>      -0.00529786       0.00000000      -2.10114602 </v>
  </varray>
  <varray name="stress" >
   <v>      -2.84512125       0.00000000      -0.00882329 </v>
   <v>       0.00000000      -6.83328678       0.00000000 </v>
   <v>      -0.00882329       0.00000000      -3.64462334 </v>
  </varray>
  <energy>
   <i name="e_fr_energy">   -255.24337321 </i>
   <i name="e_wo_entrp">   -255.24501359 </i>
   <i name="e_0_energy">      0.00492114 </i>
  </energy>
  <time name="totalsc">   69.09   69.11</time>
 </calculation>
 <calculation>
  <scstep>
   <time name="dav">   20.80   20.81</time>
   <time name="total">   23.24   23.25</time>
   <dipole>
    <v name="dipole">      0.00000000       0.00000000      -0.11904162 </v>
    <i name="Tr[quadrupol]">  -2546.49911379 </i>
    <i name="Echarged">      0.00000000 </i>
    <i name="Edipol_quadrupol">      0.00000000 </i>
    <i name="Eion">      0.00000000 </i>
   </dipole>
   <energy>
    <i name="alphaZ">     62.24979889 </i>
    <i name="ewald">   8260.38227090 </i>
    <i name="hartreedc"> -10727.91624098 </i>
    <i name="XCdc">    276.38506052 </i>
    <i name="pawpsdc">  10872.17682159 </i>
    <i name="pawaedc"> -10823.75821225 </i>
    <i name="eentropy">      0.00373575 </i>
    <i name="bandstr">  -1124.85472431 </i>
    <i name="atom">   2949.83092804 </i>
    <i name="e_fr_energy">   -255.50056185 </i>
    <i name="e_wo_entrp">   -255.50429759 </i>
    <i name="e_0_energy">   -255.50180710 </i>
   </energy>
  </scstep>
  <scstep>
   <time name="dav">   24.85   24.95</time>
   <time name="total">   27.31   27.41</time>
   <dipole>
    <v name="dipole">      0.00000000       0.00000000      -0.09430926 </v>
    <i name="Tr[quadrupol]">  -2546.59448058 </i>
    <i name="Echarged">      0.00000000 </i>
    <i name="Edipol_quadrupol">      0.00000000 </i>
    <i name="Eion">      0.00000000 </i>
   </dipole>
   <energy>
    <i name="e_fr_energy">   -255.50217976 </i>
    <i name="e_wo_entrp">   -255.50524387 </i>
    <i name="e_0_energy">   -255.50320113 </i>
   </energy>
  </scstep>
  <scstep>
   <time name="dav">   25.83   25.83</time>
   <time name="total">   28.27   28.27</time>
   <dipole>
    <v name="dipole">      0.00000000       0.00000000      -0.09024425 </v>
    <i name="Tr[quadrupol]">  -2546.53023668 </i>
    <i name="Echarged">      0.00000000 </i>
    <i name="Edipol_quadrupol">      0.00000000 </i>
    <i name="Eion">      0.00000000 </i>
   </dipole>
   <energy>
    <i name="e_fr_energy">   -255.50058408 </i>
    <i name="e_wo_entrp">   -255.50377217 </i>
    <i name="e_0_energy">   -255.50164678 </i>
   </energy>
  </scstep>
  <scstep>
   <time name="dav">   23.81   23.90</time>
   <time name="total">   26.26   26.35</time>
   <dipole>
    <v name="dipole">      0.00000000       0.00000000      -0.08930264 </v>
    <i name="Tr[quadrupol]">  -2546.49934881 </i>
    <i name="Echarged">      0.00000000 </i>
    <i name="Edipol_quadrupol">      0.00000000 </i>
    <i name="Eion">      0.00000000 </i>
   </dipole>
   <energy>
    <i name="e_fr_energy">   -255.50057700 </i>
    <i name="e_wo_entrp">   -255.50383758 </i>
    <i name="e_0_energy">   -255.50166386 </i>
   </energy>
  </scstep>
  <scstep>
   <time name="dav">   20.37   20.37</time>
   <time name="total">   22.81   22.82</time>
   <dipole>
    <v name="dipole">      0.00000000       0.00000000      -0.08693555 </v>
    <i name="Tr[quadrupol]">  -2546.48149531 </i>
    <i name="Echarged">      0.00000000 </i>
    <i name="Edipol_quadrupol">      0.00000000 </i>
    <i name="Eion">      0.00000000 </i>
   </dipole>
   <energy>
    <i name="e_fr_energy">   -255.50073014 </i>
    <i name="e_wo_entrp">   -255.50398195 </i>
    <i name="e_0_energy">   -255.50181408 </i>
   </energy>
  </scstep>
  <scstep>
   <time name="dav">   17.53   17.53</time>
   <time name="total">   19.96   19.96</time>
   <dipole>
    <v name="dipole">      0.00000000       0.00000000      -0.08526280 </v>
    <i name="Tr[quadrupol]">  -2546.46931083 </i>
    <i name="Echarged">      0.00000000 </i>
    <i name="Edipol_quadrupol">      0.00000000 </i>
    <i name="Eion">      0.00000000 </i>
   </dipole>
   <energy>
    <i name="e_fr_energy">   -255.50085154 </i>
    <i name="e_wo_entrp">   -255.50411874 </i>
    <i name="e_0_energy">   -255.50194061 </i>
   </energy>
  </scstep>
  <scstep>
   <time name="dav">   17.45   17.45</time>
   <time name="total">   19.89   19.89</time>
   <dipole>
    <v name="dipole">      0.00000000       0.00000000      -0.08325263 </v>
    <i name="Tr[quadrupol]">  -2546.45679539 </i>
    <i name="Echarged">      0.00000000 </i>
    <i name="Edipol_quadrupol">      0.00000000 </i>
    <i name="Eion">      0.00000000 </i>
   </dipole>
   <energy>
    <i name="e_fr_energy">   -255.50097008 </i>
    <i name="e_wo_entrp">   -255.50423089 </i>
    <i name="e_0_energy">   -255.50205702 </i>
   </energy>
  </scstep>
  <scstep>
   <time name="dav">   17.41   17.41</time>
   <time name="total">   19.86   19.87</time>
   <dipole>
    <v name="dipole">      0.00000000       0.00000000      -0.08093575 </v>
    <i name="Tr[quadrupol]">  -2546.44326937 </i>
    <i name="Echarged">      0.00000000 </i>
    <i name="Edipol_quadrupol">      0.00000000 </i>
    <i name="Eion">      0.00000000 </i>
   </dipole>
   <energy>
    <i name="e_fr_energy">   -255.50108030 </i>
    <i name="e_wo_entrp">   -255.50433684 </i>
    <i name="e_0_energy">   -255.50216582 </i>
   </energy>
  </scstep>
  <scstep>
   <time name="dav">   17.34   17.34</time>
   <time name="total">   18.46   18.47</time>
   <dipole>
    <v name="dipole">      0.00000000       0.00000000      -0.07912703 </v>
    <i name="Tr[quadrupol]">  -2546.43241348 </i>
    <i name="Echarged">      0.00000000 </i>
    <i name="Edipol_quadrupol">      0.00000000 </i>
    <i name="Eion">      0.00000000 </i>
   </dipole>
   <energy>
    <i name="alphaZ">     62.94196566 </i>
    <i name="ewald">   8260.38227090 </i>
    <i name="hartreedc"> -10725.27581115 </i>
    <i name="XCdc">    276.34556123 </i>
    <i name="pawpsdc">  10924.03890542 </i>
    <i name="pawaedc"> -10875.63541007 </i>
    <i name="eentropy">      0.00325836 </i>
    <i name="bandstr">  -1128.13281159 </i>
    <i name="atom">   2949.83092804 </i>
    <i name="e_fr_energy">   -255.50114319 </i>
    <i name="e_wo_entrp">   -255.50440156 </i>
    <i name="e_0_energy">   -255.50222931 </i>
   </energy>
  </scstep>
  <structure>
   <crystal>
    <varray name="basis" >
     <v>      10.16000000       0.00000000       0.00000000 </v>
     <v>       0.00000000      11.76000000       0.00000000 </v>
     <v>       0.00000000       0.00000000      15.00000000 </v>
    </varray>
    <i name="volume">   1792.22400000 </i>
    <varray name="rec_basis" >
     <v>       0.09842520       0.00000000       0.00000000 </v>
     <v>       0.00000000       0.08503401       0.00000000 </v>
     <v>       0.00000000       0.00000000       0.06666667 </v>
    </varray>
   </crystal>
   <varray name="positions" >
    <v>      -0.00093390       0.00040123      -0.00029352 </v>
    <v>       0.16317019      -0.00073838      -0.00020531 </v>
    <v>       0.33628975       0.00174933       0.00203439 </v>
    <v>       0.07953888       0.12500000       0.00137954 </v>
    <v>       0.25710432       0.12500000       0.00224709 </v>
    <v>      -0.00093390       0.24959877      -0.00029352 </v>
    <v>       0.16317019       0.25073838      -0.00020531 </v>
    <v>       0.33628975       0.24825067       0.00203439 </v>
    <v>       0.08134702       0.37396742      -0.00040880 </v>
    <v>       0.25256689       0.37554327       0.00115571 </v>
    <v>       0.99809055       0.50081113      -0.00023247 </v>
    <v>       0.16681444       0.50044122       0.00010299 </v>
    <v>       0.33526654       0.49981772      -0.00011905 </v>
    <v>       0.08022190       0.62500000       0.00034525 </v>
    <v>       0.25272826       0.62500000      -0.00000139 </v>
    <v>       0.99809055       0.74918887      -0.00023247 </v>
    <v>       0.16681444       0.74955878       0.00010299 </v>
    <v>       0.33526654       0.75018228      -0.00011905 </v>
    <v>       0.08134702       0.87603258      -0.00040880 </v>
    <v>       0.25256689       0.87445673       0.00115571 </v>
    <v>       0.49707921       0.00174221       0.00203783 </v>
    <v>       0.67011566      -0.00072531      -0.00020564 </v>
    <v>       0.83429324       0.00040107      -0.00029448 </v>
    <v>       0.57622948       0.12500000       0.00224539 </v>
    <v>       0.75380657       0.12500000       0.00138295 </v>
    <v>       0.49707921       0.24825779       0.00203783 </v>
    <v>       0.67011566       0.25072531      -0.00020564 </v>
    <v>       0.83429324       0.24959893      -0.00029448 </v>
    <v>       0.58077440       0.37552476       0.00115676 </v>
    <v>       0.75198969       0.37394633      -0.00040880 </v>
    <v>       0.49809933       0.49981737      -0.00011256 </v>
    <v>       0.66644163       0.50044159       0.00010301 </v>
    <v>       0.83527487       0.50080717      -0.00023570 </v>
    <v>       0.58061573       0.62500000      -0.00000146 </v>
    <v>       0.75312674       0.62500000       0.00034534 </v>
    <v>       0.49809933       0.75018263      -0.00011256 </v>
    <v>       0.66644163       0.74955841       0.00010301 </v>
    <v>       0.83527487       0.74919283      -0.00023570 </v>
    <v>       0.58077440       0.87447524       0.00115676 </v>
    <v>       0.75198969       0.87605367      -0.00040880 </v>
    <v>       0.41665910       0.12500000       0.11723857 </v>
   </varray>
  </structure>
  <varray name="forces" >
   <v>      -0.38489294      -0.00981258      -0.04133955 </v>
   <v>       0.50383350       0.19704150       0.04226001 </v>
   <v>      -0.35691181      -0.43060188       0.09270000 </v>
   <v>       0.21446585       0.00000000       0.17864814 </v>
   <v>      -0.55108320       0.00000000       0.12046725 </v>
   <v>      -0.38489294       0.00981258      -0.04133955 </v>
   <v>       0.50383350      -0.19704150       0.04226001 </v>
   <v>      -0.35691181       0.43060188       0.09270000 </v>
   <v>      -0.19306895       0.32079675      -0.05263440 </v>
   <v>       0.13785845      -0.30489145       0.15169675 </v>
   <v>       0.03621575      -0.14730887      -0.03981653 </v>
   <v>      -0.01012654      -0.03152029       0.01460186 </v>
   <v>      -0.01498329       0.02817156       0.00503219 </v>
   <v>       0.01220964       0.00000000       0.05690653 </v>
   <v>       0.09199373       0.00000000      -0.01195314 </v>
   <v>       0.03621575       0.14730887      -0.03981653 </v>
   <v>      -0.01012654       0.03152029       0.01460186 </v>
   <v>      -0.01498329      -0.02817156       0.00503219 </v>
   <v>      -0.19306895      -0.32079675      -0.05263440 </v>
   <v>       0.13785845       0.30489145       0.15169675 </v>
   <v>       0.34776534      -0.42538204       0.09257905 </v>
   <v>      -0.48903531       0.20007655       0.04235956 </v>
   <v>       0.38882214      -0.01137143      -0.04354976 </v>
   <v>       0.54098056       0.00000000       0.12033309 </v>
   <v>      -0.21576254       0.00000000       0.17987525 </v>
   <v>       0.34776534       0.42538204       0.09257905 </v>
   <v>      -0.48903531      -0.20007655       0.04235956 </v>
   <v>       0.38882214       0.01137143      -0.04354976 </v>
   <v>      -0.13815385      -0.30508210       0.14500176 </v>
   <v>       0.18544193       0.32133235      -0.05023931 </v>
   <v>       0.01008601       0.02793745       0.00696155 </v>
   <v>       0.02490290      -0.03614993       0.01489600 </v>
   <v>      -0.04299797      -0.15202030      -0.04224289 </v>
   <v>      -0.09489091       0.00000000      -0.01152520 </v>
   <v>      -0.01256580       0.00000000       0.05568499 </v>
   <v>       0.01008601      -0.02793745       0.00696155 </v>
   <v>       0.02490290       0.03614993       0.01489600 </v>
   <v>      -0.04299797       0.15202030      -0.04224289 </v>
   <v>      -0.13815385       0.30508210       0.14500176 </v>
   <v>       0.18544193      -0.32133235      -0.05023931 </v>
   <v>       0.00514195       0.00000000      -1.36496947 </v>
  </varray>
  <varray name="stress" >
   <v>      -3.10531239       0.00000000       0.01053197 </v>
   <v>       0.00000000      -6.89278307       0.00000000 </v>
   <v>       0.01053197       0.00000000      -2.29651812 </v>
  </varray>
  <energy>
   <i name="e_fr_energy">   -255.50114319 </i>
   <i name="e_wo_entrp">   -255.50222931 </i>
   <i name="e_0_energy">      0.00325836 </i>
  </energy>
  <time name="totalsc">  232.00  232.23</time>
 </calculation>
 <calculation>
  <scstep>
   <time name="dav">   20.57   20.57</time>
   <time name="total">   23.08   23.08</time>
   <dipole>
    <v name="dipole">      0.00000000       0.00000000      -0.07699257 </v>
    <i name="Tr[quadrupol]">  -2546.53241359 </i>
    <i name="Echarged">      0.00000000 </i>
    <i name="Edipol_quadrupol">      0.00000000 </i>
    <i name="Eion">      0.00000000 </i>
   </dipole>
   <energy>
    <i name="alphaZ">     62.97075164 </i>
    <i name="ewald">   8295.19008699 </i>
    <i name="hartreedc"> -10756.86643370 </i>
    <i name="XCdc">    276.72280796 </i>
    <i name="pawpsdc">  10923.96157667 </i>
    <i name="pawaedc"> -10875.55814128 </i>
    <i name="eentropy">      0.00374830 </i>
    <i name="bandstr">  -1131.85799170 </i>
    <i name="atom">   2949.83092804 </i>
    <i name="e_fr_energy">   -255.60266707 </i>
    <i name="e_wo_entrp">   -255.60641538 </i>
    <i name="e_0_energy">   -255.60391651 </i>
   </energy>
  </scstep>
  <scstep>
   <time name="dav">   24.44   24.44</time>
   <time name="total">   26.89   26.89</time>
   <dipole>
    <v name="dipole">      0.00000000       0.00000000      -0.05114941 </v>
    <i name="Tr[quadrupol]">  -2546.52583119 </i>
    <i name="Echarged">      0.00000000 </i>
    <i name="Edipol_quadrupol">      0.00000000 </i>
    <i name="Eion">      0.00000000 </i>
   </dipole>
   <energy>
    <i name="e_fr_energy">   -255.60618742 </i>
    <i name="e_wo_entrp">   -255.61048950 </i>
    <i name="e_0_energy">   -255.60762145 </i>
   </energy>
  </scstep>
  <scstep>
   <time name="dav">   25.70   25.70</time>
   <time name="total">   28.16   28.21</time>
   <dipole>
    <v name="dipole">      0.00000000       0.00000000      -0.04641501 </v>
    <i name="Tr[quadrupol]">  -2546.51842170 </i>
    <i name="Echarged">      0.00000000 </i>
    <i name="Edipol_quadrupol">      0.00000000 </i>
    <i name="Eion">      0.00000000 </i>
   </dipole>
   <energy>
    <i name="e_fr_energy">   -255.60417840 </i>
    <i name="e_wo_entrp">   -255.60876346 </i>
    <i name="e_0_energy">   -255.60570676 </i>
   </energy>
  </scstep>
  <scstep>
   <time name="dav">   24.45   24.45</time>
   <time name="total">   26.89   26.89</time>
   <dipole>
    <v name="dipole">      0.00000000       0.00000000      -0.04565616 </v>
    <i name="Tr[quadrupol]">  -2546.50505721 </i>
    <i name="Echarged">      0.00000000 </i>
    <i name="Edipol_quadrupol">      0.00000000 </i>
    <i name="Eion">      0.00000000 </i>
   </dipole>
   <energy>
    <i name="e_fr_energy">   -255.60419132 </i>
    <i name="e_wo_entrp">   -255.60871145 </i>
    <i name="e_0_energy">   -255.60569803 </i>
   </energy>
  </scstep>
  <scstep>
   <time name="dav">   23.10   23.10</time>
   <time name="total">   25.57   25.57</time>
   <dipole>
    <v name="dipole">      0.00000000       0.00000000      -0.04290354 </v>
    <i name="Tr[quadrupol]">  -2546.49623319 </i>
    <i name="Echarged">      0.00000000 </i>
    <i name="Edipol_quadrupol">      0.00000000 </i>
    <i name="Eion">      0.00000000 </i>
   </dipole>
   <energy>
    <i name="e_fr_energy">   -255.60438883 </i>
    <i name="e_wo_entrp">   -255.60888668 </i>
    <i name="e_0_energy">   -255.60588811 </i>
   </energy>
  </scstep>
  <scstep>
   <time name="dav">   17.75   17.75</time>
   <time name="total">   20.22   20.22</time>
   <dipole>
    <v name="dipole">      0.00000000       0.00000000      -0.04126722 </v>
    <i name="Tr[quadrupol]">  -2546.48524542 </i>
    <i name="Echarged">      0.00000000 </i>
    <i name="Edipol_quadrupol">      0.00000000 </i>
    <i name="Eion">      0.00000000 </i>
   </dipole>
   <energy>
    <i name="e_fr_energy">   -255.60449687 </i>
    <i name="e_wo_entrp">   -255.60900204 </i>
    <i name="e_0_energy">   -255.60599860 </i>
   </energy>
  </scstep>
  <scstep>
   <time name="dav">   17.40   17.40</time>
   <time name="total">   19.86   19.87</time>
   <dipole>
    <v name="dipole">      0.00000000       0.00000000      -0.03916961 </v>
    <i name="Tr[quadrupol]">  -2546.47348754 </i>
    <i name="Echarged">      0.00000000 </i>
    <i name="Edipol_quadrupol">      0.00000000 </i>
    <i name="Eion">      0.00000000 </i>
   </dipole>
   <energy>
    <i name="e_fr_energy">   -255.60461067 </i>
    <i name="e_wo_entrp">   -255.60911747 </i>
    <i name="e_0_energy">   -255.60611293 </i>
   </energy>
  </scstep>
  <scstep>
   <time name="dav">   17.64   17.64</time>
   <time name="total">   18.76   18.77</time>
   <dipole>
    <v name="dipole">      0.00000000       0.00000000      -0.03733692 </v>
[...]
       <r>     0.0705     7.4704    71.0929 </r>
       <r>     0.1404     1.9141    71.2268 </r>
       <r>     0.2103     0.0094    71.2274 </r>
       <r>     0.2803     3.2606    71.4554 </r>
       <r>     0.3502     5.7674    71.8587 </r>
       <r>     0.4201     4.7366    72.1899 </r>
       <r>     0.4900     5.7772    72.5939 </r>
       <r>     0.5599     6.3716    73.0394 </r>
       <r>     0.6299     3.6432    73.2941 </r>
       <r>     0.6998     1.0157    73.3651 </r>
       <r>     0.7697     3.1685    73.5867 </r>
       <r>     0.8396     6.2156    74.0213 </r>
       <r>     0.9096     5.8527    74.4306 </r>
       <r>     0.9795     6.7301    74.9012 </r>
       <r>     1.0494     9.1670    75.5421 </r>
       <r>     1.1193    10.0474    76.2447 </r>
       <r>     1.1893    12.2409    77.1006 </r>
       <r>     1.2592    14.3747    78.1057 </r>
       <r>     1.3291    11.0781    78.8803 </r>
       <r>     1.3990    11.1535    79.6602 </r>
       <r>     1.4689    15.5884    80.7502 </r>
       <r>     1.5389    13.6833    81.7070 </r>
       <r>     1.6088     9.4845    82.3702 </r>
       <r>     1.6787     5.9131    82.7837 </r>
       <r>     1.7486     2.4764    82.9568 </r>
       <r>     1.8186     0.7416    83.0087 </r>
       <r>     1.8885    -0.0475    83.0053 </r>
       <r>     1.9584    -0.0681    83.0006 </r>
       <r>     2.0283    -0.0081    83.0000 </r>
       <r>     2.0983    -0.0003    83.0000 </r>
       <r>     2.1682    -0.0000    83.0000 </r>
       <r>     2.2381    -0.0000    83.0000 </r>
       <r>     2.3080    -0.0000    83.0000 </r>
       <r>     2.3780    -0.0000    83.0000 </r>
       <r>     2.4479     0.0000    83.0000 </r>
       <r>     2.5178     0.0000    83.0000 </r>
       <r>     2.5877     0.0000    83.0000 </r>
       <r>     2.6576     0.0000    83.0000 </r>
       <r>     2.7276     0.0000    83.0000 </r>
      </set>
      <set comment="spin 2">
       <r>   -18.2494     0.0000     0.0000 </r>
       <r>   -18.1795     0.0000     0.0000 </r>
       <r>   -18.1096    -0.0000    -0.0000 </r>
       <r>   -18.0396    -0.0000    -0.0000 </r>
       <r>   -17.9697    -0.0000    -0.0000 </r>
       <r>   -17.8998    -0.0000    -0.0000 </r>
       <r>   -17.8299    -0.0000    -0.0000 </r>
       <r>   -17.7600    -0.0000    -0.0000 </r>
       <r>   -17.6900    -0.0000    -0.0000 </r>
       <r>   -17.6201    -0.0000    -0.0000 </r>
       <r>   -17.5502    -0.0002    -0.0000 </r>
       <r>   -17.4803    -0.0056    -0.0004 </r>
       <r>   -17.4103    -0.0674    -0.0051 </r>
       <r>   -17.3404    -0.2039    -0.0194 </r>
       <r>   -17.2705     0.7637     0.0340 </r>
       <r>   -17.2006     4.5373     0.3513 </r>
       <r>   -17.1306     6.4566     0.8028 </r>
       <r>   -17.0607     3.4226     1.0421 </r>
       <r>   -16.9908     3.3283     1.2748 </r>
       <r>   -16.9209     5.8878     1.6865 </r>
       <r>   -16.8509     6.4674     2.1387 </r>
       <r>   -16.7810     5.5758     2.5286 </r>
       <r>   -16.7111     4.1748     2.8205 </r>
       <r>   -16.6412     4.4162     3.1293 </r>
       <r>   -16.5713     3.0996     3.3460 </r>
       <r>   -16.5013     2.4028     3.5141 </r>
       <r>   -16.4314     3.1088     3.7314 </r>
       <r>   -16.3615     3.4819     3.9749 </r>
       <r>   -16.2916     4.5630     4.2940 </r>
       <r>   -16.2216     4.1814     4.5863 </r>
       <r>   -16.1517     1.3281     4.6792 </r>
       <r>   -16.0818    -0.2591     4.6611 </r>
       <r>   -16.0119     0.0331     4.6634 </r>
       <r>   -15.9419     2.6289     4.8472 </r>
       <r>   -15.8720     4.6814     5.1746 </r>
       <r>   -15.8021     3.4307     5.4144 </r>
       <r>   -15.7322     4.1948     5.7078 </r>
       <r>   -15.6623     3.5888     5.9587 </r>
       <r>   -15.5923     0.8120     6.0155 </r>
       <r>   -15.5224    -0.1574     6.0045 </r>
       <r>   -15.4525    -0.1154     5.9964 </r>
       <r>   -15.3826    -0.1848     5.9835 </r>
       <r>   -15.3126     0.6532     6.0291 </r>
       <r>   -15.2427     3.5978     6.2807 </r>
       <r>   -15.1728     4.2939     6.5810 </r>
       <r>   -15.1029     2.9198     6.7851 </r>
       <r>   -15.0329     4.3050     7.0861 </r>
       <r>   -14.9630     3.1700     7.3078 </r>
       <r>   -14.8931     0.5546     7.3466 </r>
       <r>   -14.8232     0.3228     7.3692 </r>
       <r>   -14.7532     1.0173     7.4403 </r>
       <r>   -14.6833     2.4507     7.6117 </r>
       <r>   -14.6134     3.3369     7.8450 </r>
       <r>   -14.5435     4.4748     8.1579 </r>
       <r>   -14.4736     5.8373     8.5660 </r>
       <r>   -14.4036     3.6676     8.8225 </r>
       <r>   -14.3337     1.9832     8.9612 </r>
       <r>   -14.2638     0.6525     9.0068 </r>
       <r>   -14.1939    -0.1139     8.9988 </r>
       <r>   -14.1239    -0.1399     8.9890 </r>
       <r>   -14.0540     0.8917     9.0514 </r>
       <r>   -13.9841     3.2833     9.2810 </r>
       <r>   -13.9142     4.1551     9.5715 </r>
       <r>   -13.8442     2.8262     9.7691 </r>
       <r>   -13.7743     1.3548     9.8639 </r>
       <r>   -13.7044     0.5077     9.8994 </r>
       <r>   -13.6345     2.9567    10.1061 </r>
       <r>   -13.5646     4.7516    10.4383 </r>
       <r>   -13.4946     3.4778    10.6815 </r>
       <r>   -13.4247     3.7181    10.9415 </r>
       <r>   -13.3548     4.5530    11.2599 </r>
       <r>   -13.2849     6.7772    11.7338 </r>
       <r>   -13.2149     7.8858    12.2852 </r>
       <r>   -13.1450     6.8596    12.7648 </r>
       <r>   -13.0751     6.5978    13.2261 </r>
       <r>   -13.0052     4.8438    13.5648 </r>
       <r>   -12.9352     4.2830    13.8643 </r>
       <r>   -12.8653     6.1380    14.2935 </r>
       <r>   -12.7954     4.6227    14.6167 </r>
       <r>   -12.7255     2.6518    14.8022 </r>
       <r>   -12.6556     3.3242    15.0346 </r>
       <r>   -12.5856     3.1196    15.2527 </r>
       <r>   -12.5157     1.4094    15.3513 </r>
       <r>   -12.4458     4.7904    15.6862 </r>
       <r>   -12.3759     7.9603    16.2429 </r>
       <r>   -12.3059     4.0444    16.5257 </r>
       <r>   -12.2360     1.8891    16.6577 </r>
       <r>   -12.1661     5.3329    17.0306 </r>
       <r>   -12.0962     8.8796    17.6515 </r>
       <r>   -12.0262     9.5601    18.3200 </r>
       <r>   -11.9563     5.7435    18.7216 </r>
       <r>   -11.8864     1.6720    18.8385 </r>
       <r>   -11.8165     3.4403    19.0791 </r>
       <r>   -11.7465     4.8423    19.4177 </r>
       <r>   -11.6766     2.7448    19.6096 </r>
       <r>   -11.6067     0.8427    19.6685 </r>
       <r>   -11.5368     0.0443    19.6716 </r>
       <r>   -11.4669    -0.1216    19.6631 </r>
       <r>   -11.3969    -0.1703    19.6512 </r>
       <r>   -11.3270     0.6962    19.6999 </r>
       <r>   -11.2571     3.6565    19.9556 </r>
       <r>   -11.1872     5.1142    20.3132 </r>
       <r>   -11.1172     3.1887    20.5361 </r>
       <r>   -11.0473     2.8543    20.7357 </r>
       <r>   -10.9774     3.1446    20.9556 </r>
       <r>   -10.9075     4.0969    21.2421 </r>
       <r>   -10.8375     4.3628    21.5471 </r>
       <r>   -10.7676     2.8244    21.7446 </r>
       <r>   -10.6977     1.7141    21.8645 </r>
       <r>   -10.6278     0.4251    21.8942 </r>
       <r>   -10.5579     0.0464    21.8974 </r>
       <r>   -10.4879     0.7168    21.9476 </r>
       <r>   -10.4180     0.6556    21.9934 </r>
       <r>   -10.3481    -0.0827    21.9876 </r>
       <r>   -10.2782     0.5569    22.0266 </r>
       <r>   -10.2082     3.1278    22.2453 </r>
       <r>   -10.1383     3.6232    22.4986 </r>
       <r>   -10.0684     2.4451    22.6696 </r>
       <r>    -9.9985     2.4268    22.8393 </r>
       <r>    -9.9285     3.1140    23.0570 </r>
       <r>    -9.8586     3.9828    23.3355 </r>
       <r>    -9.7887     4.4459    23.6464 </r>
       <r>    -9.7188     4.3262    23.9489 </r>
       <r>    -9.6489     2.7003    24.1377 </r>
       <r>    -9.5789     2.9213    24.3420 </r>
       <r>    -9.5090     4.7366    24.6732 </r>
       <r>    -9.4391     6.1718    25.1047 </r>
       <r>    -9.3692     4.9786    25.4528 </r>
       <r>    -9.2992     2.4645    25.6252 </r>
       <r>    -9.2293     4.6338    25.9492 </r>
       <r>    -9.1594     7.8869    26.5006 </r>
       <r>    -9.0895     5.0596    26.8544 </r>
       <r>    -9.0195     1.7008    26.9734 </r>
       <r>    -8.9496     3.3485    27.2075 </r>
       <r>    -8.8797     3.5885    27.4584 </r>
       <r>    -8.8098     2.7005    27.6472 </r>
       <r>    -8.7398     7.8384    28.1953 </r>
       <r>    -8.6699    14.8574    29.2342 </r>
       <r>    -8.6000    10.6934    29.9819 </r>
       <r>    -8.5301     5.2328    30.3478 </r>
       <r>    -8.4602     5.6686    30.7442 </r>
       <r>    -8.3902     6.1511    31.1743 </r>
       <r>    -8.3203     6.8731    31.6549 </r>
       <r>    -8.2504     6.1663    32.0861 </r>
       <r>    -8.1805     7.5203    32.6119 </r>
       <r>    -8.1105     6.8403    33.0902 </r>
       <r>    -8.0406     5.1328    33.4491 </r>
       <r>    -7.9707     5.9395    33.8644 </r>
       <r>    -7.9008     8.2775    34.4432 </r>
       <r>    -7.8308     5.5027    34.8280 </r>
       <r>    -7.7609     1.7636    34.9513 </r>
       <r>    -7.6910     2.6331    35.1354 </r>
       <r>    -7.6211     7.8299    35.6829 </r>
       <r>    -7.5512     8.2386    36.2590 </r>
       <r>    -7.4812     4.8910    36.6010 </r>
       <r>    -7.4113     4.4142    36.9096 </r>
       <r>    -7.3414     7.4653    37.4316 </r>
       <r>    -7.2715     8.7495    38.0434 </r>
       <r>    -7.2015     8.0264    38.6046 </r>
       <r>    -7.1316     4.1501    38.8948 </r>
       <r>    -7.0617     2.9372    39.1002 </r>
       <r>    -6.9918     7.0336    39.5920 </r>
       <r>    -6.9218     5.2794    39.9612 </r>
       <r>    -6.8519     2.7046    40.1503 </r>
       <r>    -6.7820     6.7462    40.6220 </r>
       <r>    -6.7121     8.0468    41.1847 </r>
       <r>    -6.6422     4.6823    41.5121 </r>
       <r>    -6.5722     3.8388    41.7805 </r>
       <r>    -6.5023     5.3654    42.1557 </r>
       <r>    -6.4324     6.9147    42.6392 </r>
       <r>    -6.3625     4.2714    42.9378 </r>
       <r>    -6.2925     1.9315    43.0729 </r>
       <r>    -6.2226     3.4549    43.3145 </r>
       <r>    -6.1527     6.2130    43.7489 </r>
       <r>    -6.0828     9.0810    44.3839 </r>
       <r>    -6.0128     7.1752    44.8856 </r>
       <r>    -5.9429     3.3211    45.1178 </r>
       <r>    -5.8730     4.0636    45.4020 </r>
       <r>    -5.8031     7.8817    45.9531 </r>
       <r>    -5.7331     8.1467    46.5227 </r>
       <r>    -5.6632     6.4346    46.9726 </r>
       <r>    -5.5933     5.8974    47.3850 </r>
       <r>    -5.5234     5.0614    47.7389 </r>
       <r>    -5.4535     6.1236    48.1671 </r>
       <r>    -5.3835     7.2917    48.6770 </r>
       <r>    -5.3136     7.6172    49.2096 </r>
       <r>    -5.2437     8.5296    49.8060 </r>
       <r>    -5.1738     7.7081    50.3450 </r>
       <r>    -5.1038     5.7616    50.7478 </r>
       <r>    -5.0339     6.9225    51.2319 </r>
       <r>    -4.9640     8.0344    51.7937 </r>
       <r>    -4.8941     6.5888    52.2544 </r>
       <r>    -4.8241     7.3434    52.7678 </r>
       <r>    -4.7542     5.5491    53.1559 </r>
       <r>    -4.6843     3.4467    53.3969 </r>
       <r>    -4.6144     5.8793    53.8080 </r>
       <r>    -4.5445     7.1634    54.3089 </r>
       <r>    -4.4745     5.0462    54.6617 </r>
       <r>    -4.4046     2.5067    54.8370 </r>
       <r>    -4.3347     4.9824    55.1854 </r>
       <r>    -4.2648     6.3193    55.6272 </r>
       <r>    -4.1948     5.0441    55.9799 </r>
       <r>    -4.1249     6.5859    56.4404 </r>
       <r>    -4.0550     6.8909    56.9223 </r>
       <r>    -3.9851     3.0728    57.1371 </r>
       <r>    -3.9151     4.2899    57.4371 </r>
       <r>    -3.8452     8.7829    58.0512 </r>
       <r>    -3.7753     8.2139    58.6256 </r>
       <r>    -3.7054     6.8460    59.1042 </r>
       <r>    -3.6354     5.8941    59.5164 </r>
       <r>    -3.5655     6.7330    59.9872 </r>
       <r>    -3.4956     5.2907    60.3571 </r>
       <r>    -3.4257     2.9518    60.5635 </r>
       <r>    -3.3558     3.7318    60.8245 </r>
       <r>    -3.2858     5.6366    61.2186 </r>
       <r>    -3.2159     6.2299    61.6542 </r>
       <r>    -3.1460     4.5666    61.9735 </r>
       <r>    -3.0761     3.2838    62.2031 </r>
       <r>    -3.0061     2.7921    62.3984 </r>
       <r>    -2.9362     5.9837    62.8168 </r>
       <r>    -2.8663     6.2916    63.2567 </r>
       <r>    -2.7964     1.4769    63.3600 </r>
       <r>    -2.7264    -0.5410    63.3221 </r>
       <r>    -2.6565     0.0407    63.3250 </r>
       <r>    -2.5866     4.0751    63.6099 </r>
       <r>    -2.5167     6.6987    64.0783 </r>
       <r>    -2.4468     2.2522    64.2358 </r>
       <r>    -2.3768     0.0902    64.2421 </r>
       <r>    -2.3069     2.7936    64.4374 </r>
       <r>    -2.2370     3.9716    64.7151 </r>
       <r>    -2.1671     2.4427    64.8859 </r>
       <r>    -2.0971     2.7122    65.0756 </r>
       <r>    -2.0272     4.9742    65.4234 </r>
       <r>    -1.9573     4.0342    65.7055 </r>
       <r>    -1.8874     1.1157    65.7835 </r>
       <r>    -1.8174     0.0100    65.7842 </r>
       <r>    -1.7475    -0.0757    65.7789 </r>
       <r>    -1.6776    -0.0227    65.7773 </r>
       <r>    -1.6077    -0.0864    65.7713 </r>
       <r>    -1.5378    -0.2171    65.7561 </r>
       <r>    -1.4678     1.0568    65.8300 </r>
       <r>    -1.3979     5.2686    66.1984 </r>
       <r>    -1.3280     6.9499    66.6843 </r>
       <r>    -1.2581     3.6678    66.9408 </r>
       <r>    -1.1881     0.9374    67.0063 </r>
       <r>    -1.1182    -0.0334    67.0040 </r>
       <r>    -1.0483     0.3877    67.0311 </r>
       <r>    -0.9784     1.5110    67.1368 </r>
       <r>    -0.9084     3.9342    67.4119 </r>
       <r>    -0.8385     5.2985    67.7823 </r>
       <r>    -0.7686     4.0904    68.0684 </r>
       <r>    -0.6987     4.0913    68.3544 </r>
       <r>    -0.6287     5.3945    68.7316 </r>
       <r>    -0.5588     3.6499    68.9869 </r>
       <r>    -0.4889     2.8264    69.1845 </r>
       <r>    -0.4190     2.9981    69.3941 </r>
       <r>    -0.3491     1.3316    69.4872 </r>
       <r>    -0.2791     1.9230    69.6217 </r>
       <r>    -0.2092     1.7043    69.7409 </r>
       <r>    -0.1393     0.3342    69.7642 </r>
       <r>    -0.0694     3.0310    69.9762 </r>
       <r>     0.0006     8.5008    70.5706 </r>
       <r>     0.0705     7.4704    71.0929 </r>
       <r>     0.1404     1.9141    71.2268 </r>
       <r>     0.2103     0.0095    71.2274 </r>
       <r>     0.2803     3.2606    71.4554 </r>
       <r>     0.3502     5.7674    71.8587 </r>
       <r>     0.4201     4.7366    72.1899 </r>
       <r>     0.4900     5.7772    72.5939 </r>
       <r>     0.5599     6.3716    73.0394 </r>
       <r>     0.6299     3.6432    73.2941 </r>
       <r>     0.6998     1.0157    73.3651 </r>
       <r>     0.7697     3.1685    73.5867 </r>
       <r>     0.8396     6.2156    74.0213 </r>
       <r>     0.9096     5.8527    74.4305 </r>
       <r>     0.9795     6.7301    74.9011 </r>
       <r>     1.0494     9.1670    75.5421 </r>
       <r>     1.1193    10.0473    76.2447 </r>
       <r>     1.1893    12.2408    77.1006 </r>
       <r>     1.2592    14.3747    78.1057 </r>
       <r>     1.3291    11.0782    78.8803 </r>
       <r>     1.3990    11.1535    79.6602 </r>
       <r>     1.4689    15.5883    80.7502 </r>
       <r>     1.5389    13.6832    81.7070 </r>
       <r>     1.6088     9.4844    82.3702 </r>
       <r>     1.6787     5.9131    82.7836 </r>
       <r>     1.7486     2.4765    82.9568 </r>
       <r>     1.8186     0.7418    83.0087 </r>
       <r>     1.8885    -0.0475    83.0053 </r>
       <r>     1.9584    -0.0681    83.0006 </r>
       <r>     2.0283    -0.0081    83.0000 </r>
       <r>     2.0983    -0.0003    83.0000 </r>
       <r>     2.1682    -0.0000    83.0000 </r>
       <r>     2.2381    -0.0000    83.0000 </r>
       <r>     2.3080    -0.0000    83.0000 </r>
       <r>     2.3780    -0.0000    83.0000 </r>
       <r>     2.4479     0.0000    83.0000 </r>
       <r>     2.5178     0.0000    83.0000 </r>
       <r>     2.5877     0.0000    83.0000 </r>
       <r>     2.6576     0.0000    83.0000 </r>
       <r>     2.7276     0.0000    83.0000 </r>
      </set>
     </set>
    </array>
   </total>
  </dos>
 </calculation>
 <structure name="finalpos" >
  <crystal>
   <varray name="basis" >
    <v>      10.16000000       0.00000000       0.00000000 </v>
    <v>       0.00000000      11.76000000       0.00000000 </v>
    <v>       0.00000000       0.00000000      15.00000000 </v>
   </varray>
   <i name="volume">   1792.22400000 </i>
   <varray name="rec_basis" >
    <v>       0.09842520       0.00000000       0.00000000 </v>
    <v>       0.00000000       0.08503401       0.00000000 </v>
    <v>       0.00000000       0.00000000       0.06666667 </v>
   </varray>
  </crystal>
  <varray name="positions" >
   <v>      -0.00173819       0.00026789       0.00054591 </v>
   <v>       0.16389390      -0.00061976      -0.00151178 </v>
   <v>       0.33523855      -0.00016614      -0.00249974 </v>
   <v>       0.08033103       0.12500000       0.00435498 </v>
   <v>       0.25405421       0.12500000      -0.00257852 </v>
   <v>      -0.00173819       0.24973211       0.00054591 </v>
   <v>       0.16389390       0.25061976      -0.00151178 </v>
   <v>       0.33523855       0.25016614      -0.00249974 </v>
   <v>       0.08075221       0.37453707      -0.00088097 </v>
   <v>       0.25225688       0.37500109       0.00365978 </v>
   <v>       0.99814997       0.50057381      -0.00228108 </v>
   <v>       0.16670901       0.50030413       0.00205072 </v>
   <v>       0.33525733       0.49989261       0.00571034 </v>
   <v>       0.08052908       0.62500000       0.00059751 </v>
   <v>       0.25284073       0.62500000       0.00501725 </v>
   <v>       0.99814997       0.74942619      -0.00228108 </v>
   <v>       0.16670901       0.74969587       0.00205072 </v>
   <v>       0.33525733       0.75010739       0.00571034 </v>
   <v>       0.08075221       0.87546293      -0.00088097 </v>
   <v>       0.25225688       0.87499891       0.00365978 </v>
   <v>       0.49807091      -0.00015437      -0.00247434 </v>
   <v>       0.66948097      -0.00058238      -0.00151050 </v>
   <v>       0.83514384       0.00026572       0.00052240 </v>
   <v>       0.57928494       0.12500000      -0.00260348 </v>
   <v>       0.75304932       0.12500000       0.00432100 </v>
   <v>       0.49807091       0.25015437      -0.00247434 </v>
   <v>       0.66948097       0.25058238      -0.00151050 </v>
   <v>       0.83514384       0.24973428       0.00052240 </v>
   <v>       0.58109698       0.37497347       0.00363154 </v>
   <v>       0.75257713       0.37451074      -0.00101430 </v>
   <v>       0.49807794       0.49988277       0.00580424 </v>
   <v>       0.66658558       0.50030220       0.00218519 </v>
   <v>       0.83513359       0.50054604      -0.00228349 </v>
   <v>       0.58049778       0.62500000       0.00533103 </v>
   <v>       0.75278230       0.62500000       0.00083943 </v>
   <v>       0.49807794       0.75011723       0.00580424 </v>
   <v>       0.66658558       0.74969780       0.00218519 </v>
   <v>       0.83513359       0.74945396      -0.00228349 </v>
   <v>       0.58109698       0.87502653       0.00363154 </v>
   <v>       0.75257713       0.87548926      -0.00101430 </v>
   <v>       0.41664745       0.12500000       0.09874297 </v>
  </varray>
 </structure>
</modeling>
