Beta12Borophene !The name of the system 
           1
    10.160000    0.000000    0.000000
     0.000000   11.760000    0.000000
     0.000000    0.000000   15.000000
   B    Si
  40   1
Direct configuration=     1
   0.99811000  0.00000000  0.00000000
   0.16667000  0.00000000  0.00000000
   0.33522000  0.00000000  0.00000000
   0.08000000  0.12500000  0.00000000
   0.25334000  0.12500000  0.00000000
   0.99811000  0.25000000  0.00000000
   0.16667000  0.25000000  0.00000000
   0.33522000  0.25000000  0.00000000
   0.08000000  0.37500000  0.00000000
   0.25334000  0.37500000  0.00000000
   0.99811000  0.50000000  0.00000000
   0.16667000  0.50000000  0.00000000
   0.33522000  0.50000000  0.00000000
   0.08000000  0.62500000  0.00000000
   0.25334000  0.62500000  0.00000000
   0.99811000  0.75000000  0.00000000
   0.16667000  0.75000000  0.00000000
   0.33522000  0.75000000  0.00000000
   0.08000000  0.87500000  0.00000000
   0.25334000  0.87500000  0.00000000
   0.49811000  0.00000000  0.00000000
   0.66667000  0.00000000  0.00000000
   0.83522000  0.00000000  0.00000000
   0.58000000  0.12500000  0.00000000
   0.75334000  0.12500000  0.00000000
   0.49811000  0.25000000  0.00000000
   0.66667000  0.25000000  0.00000000
   0.83522000  0.25000000  0.00000000
   0.58000000  0.37500000  0.00000000
   0.75334000  0.37500000  0.00000000
   0.49811000  0.50000000  0.00000000
   0.66667000  0.50000000  0.00000000
   0.83522000  0.50000000  0.00000000
   0.58000000  0.62500000  0.00000000
   0.75334000  0.62500000  0.00000000
   0.49811000  0.75000000  0.00000000
   0.66667000  0.75000000  0.00000000
   0.83522000  0.75000000  0.00000000
   0.58000000  0.87500000  0.00000000
   0.75334000  0.87500000  0.00000000
   0.41667000  0.12500000  0.13333000
Direct configuration=     2
   0.00011384  0.00017581 -0.00014488
   0.16338538 -0.00079614 -0.00015443
   0.33703638  0.00149551  0.00114535
   0.07930772  0.12500000  0.00071589
   0.25613058  0.12500000  0.00122319
   0.00011384  0.24982419 -0.00014488
   0.16338538  0.25079614 -0.00015443
   0.33703638  0.24850449  0.00114535
   0.08102463  0.37369714 -0.00021481
   0.25260020  0.37582879  0.00059844
   0.99808678  0.50071674 -0.00011838
   0.16674031  0.50026007  0.00005473
   0.33542441  0.49980797 -0.00007167
   0.08008076  0.62500000  0.00017641
   0.25284624  0.62500000  0.00000767
   0.99808678  0.74928326 -0.00011838
   0.16674031  0.74973993  0.00005473
   0.33542441  0.75019203 -0.00007167
   0.08102463  0.87630286 -0.00021481
   0.25260020  0.87417121  0.00059844
   0.49632538  0.00149484  0.00114521
   0.66988716 -0.00079614 -0.00015442
   0.83324801  0.00017577 -0.00014490
   0.57721052  0.12500000  0.00122360
   0.75403413  0.12500000  0.00071604
   0.49632538  0.24850516  0.00114521
   0.66988716  0.25079614 -0.00015442
   0.83324801  0.24982423 -0.00014490
   0.58074154  0.37582845  0.00059856
   0.75231735  0.37369730 -0.00021481
   0.49793742  0.49980814 -0.00007169
   0.66653255  0.50026006  0.00005471
   0.83527507  0.50071671 -0.00011834
   0.58049543  0.62500000  0.00000769
   0.75326118  0.62500000  0.00017642
   0.49793742  0.75019186 -0.00007169
   0.66653255  0.74973994  0.00005471
   0.83527507  0.74928329 -0.00011834
   0.58074154  0.87417155  0.00059856
   0.75231735  0.87630270 -0.00021481
   0.41667061  0.12500000  0.12470574
Direct configuration=     3
   0.00012978  0.00017720 -0.00014603
   0.16335924 -0.00080247 -0.00015566
   0.33705083  0.00150741  0.00115446
   0.07930221  0.12500000  0.00072158
   0.25615279  0.12500000  0.00123292
   0.00012978  0.24982280 -0.00014603
   0.16335924  0.25080247 -0.00015566
   0.33705083  0.24849259  0.00115446
   0.08103278  0.37368677 -0.00021652
   0.25259432  0.37583539  0.00060321
   0.99808660  0.50072245 -0.00011932
   0.16674087  0.50026214  0.00005517
   0.33542604  0.49980644 -0.00007224
   0.08008140  0.62500000  0.00017781
   0.25284232  0.62500000  0.00000773
   0.99808660  0.74927755 -0.00011932
   0.16674087  0.74973786  0.00005517
   0.33542604  0.75019356 -0.00007224
   0.08103278  0.87631323 -0.00021652
   0.25259432  0.87416461  0.00060321
   0.49631118  0.00150674  0.00115433
   0.66991276 -0.00080247 -0.00015565
   0.83323232  0.00017717 -0.00014605
   0.57718833  0.12500000  0.00123333
   0.75403965  0.12500000  0.00072174
   0.49631118  0.24849326  0.00115433
   0.66991276  0.25080247 -0.00015565
   0.83323232  0.24982283 -0.00014605
   0.58074744  0.37583504  0.00060332
   0.75230921  0.37368693 -0.00021652
   0.49793605  0.49980661 -0.00007226
   0.66653145  0.50026213  0.00005514
   0.83527550  0.50072241 -0.00011928
   0.58049938  0.62500000  0.00000775
   0.75326056  0.62500000  0.00017782
   0.49793605  0.75019339 -0.00007226
   0.66653145  0.74973787  0.00005514
   0.83527550  0.74927759 -0.00011928
   0.58074744  0.87416496  0.00060332
   0.75230921  0.87631307 -0.00021652
   0.41667062  0.12500000  0.12463712
Direct configuration=     4
  -0.00093390  0.00040123 -0.00029352
   0.16317019 -0.00073838 -0.00020531
   0.33628975  0.00174933  0.00203439
   0.07953888  0.12500000  0.00137954
   0.25710432  0.12500000  0.00224709
  -0.00093390  0.24959877 -0.00029352
   0.16317019  0.25073838 -0.00020531
   0.33628975  0.24825067  0.00203439
   0.08134702  0.37396742 -0.00040880
   0.25256689  0.37554327  0.00115571
   0.99809055  0.50081113 -0.00023247
   0.16681444  0.50044122  0.00010299
   0.33526654  0.49981772 -0.00011905
   0.08022190  0.62500000  0.00034525
   0.25272826  0.62500000 -0.00000139
   0.99809055  0.74918887 -0.00023247
   0.16681444  0.74955878  0.00010299
   0.33526654  0.75018228 -0.00011905
   0.08134702  0.87603258 -0.00040880
   0.25256689  0.87445673  0.00115571
   0.49707921  0.00174221  0.00203783
   0.67011566 -0.00072531 -0.00020564
   0.83429324  0.00040107 -0.00029448
   0.57622948  0.12500000  0.00224539
   0.75380657  0.12500000  0.00138295
   0.49707921  0.24825779  0.00203783
   0.67011566  0.25072531 -0.00020564
   0.83429324  0.24959893 -0.00029448
   0.58077440  0.37552476  0.00115676
   0.75198969  0.37394633 -0.00040880
   0.49809933  0.49981737 -0.00011256
   0.66644163  0.50044159  0.00010301
   0.83527487  0.50080717 -0.00023570
   0.58061573  0.62500000 -0.00000146
   0.75312674  0.62500000  0.00034534
   0.49809933  0.75018263 -0.00011256
   0.66644163  0.74955841  0.00010301
   0.83527487  0.74919283 -0.00023570
   0.58077440  0.87447524  0.00115676
   0.75198969  0.87605367 -0.00040880
   0.41665910  0.12500000  0.11723857
Direct configuration=     5
  -0.00215393  0.00065818 -0.00046268
   0.16295335 -0.00066488 -0.00026227
   0.33541679  0.00202680  0.00304366
   0.07981034  0.12500000  0.00213422
   0.25819572  0.12500000  0.00341033
  -0.00215393  0.24934182 -0.00046268
   0.16295335  0.25066488 -0.00026227
   0.33541679  0.24797320  0.00304366
   0.08170744  0.37428933 -0.00062934
   0.25253543  0.37520822  0.00178943
   0.99809509  0.50091284 -0.00036225
   0.16689882  0.50064663  0.00015784
   0.33508361  0.49983067 -0.00017274
   0.08038304  0.62500000  0.00053730
   0.25259743  0.62500000 -0.00001186
   0.99809509  0.74908716 -0.00036225
   0.16689882  0.74935337  0.00015784
   0.33508361  0.75016933 -0.00017274
   0.08170744  0.87571067 -0.00062934
   0.25253543  0.87479178  0.00178943
   0.49796013  0.00201230  0.00305121
   0.67034839 -0.00063681 -0.00026297
   0.83551010  0.00065788 -0.00046471
   0.57512970  0.12500000  0.00340620
   0.75353924  0.12500000  0.00214134
   0.49796013  0.24798770  0.00305121
   0.67034839  0.25063681 -0.00026297
   0.83551010  0.24934212 -0.00046471
   0.58080532  0.37516888  0.00179155
   0.75162320  0.37424386 -0.00062934
   0.49828662  0.49982971 -0.00015878
   0.66633861  0.50064743  0.00015790
   0.83527415  0.50090439 -0.00036923
   0.58074918  0.62500000 -0.00001204
   0.75297325  0.62500000  0.00053748
   0.49828662  0.75017029 -0.00015878
   0.66633861  0.74935257  0.00015790
   0.83527415  0.74909561 -0.00036923
   0.58080532  0.87483112  0.00179155
   0.75162320  0.87575614 -0.00062934
   0.41664590  0.12500000  0.10875253
Direct configuration=     6
  -0.00182104  0.00048852 -0.00056099
   0.16385885 -0.00031850 -0.00015833
   0.33525472  0.00047166  0.00319987
   0.08041967  0.12500000  0.00260650
   0.25553968  0.12500000  0.00352255
  -0.00182104  0.24951148 -0.00056099
   0.16385885  0.25031850 -0.00015833
   0.33525472  0.24952834  0.00319987
   0.08101253  0.37473499 -0.00077963
   0.25283235  0.37451243  0.00218460
   0.99830466  0.50057032 -0.00047640
   0.16679165  0.50048127  0.00019601
   0.33531330  0.49985317 -0.00015193
   0.08039124  0.62500000  0.00070098
   0.25289793  0.62500000 -0.00005211
   0.99830466  0.74942968 -0.00047640
   0.16679165  0.74951873  0.00019601
   0.33531330  0.75014683 -0.00015193
   0.08101253  0.87526501 -0.00077963
   0.25283235  0.87548757  0.00218460
   0.49809108  0.00047955  0.00320305
   0.66946486 -0.00028189 -0.00016105
   0.83517663  0.00048800 -0.00056989
   0.57778613  0.12500000  0.00352068
   0.75292719  0.12500000  0.00262054
   0.49809108  0.24952045  0.00320305
   0.66946486  0.25028189 -0.00016105
   0.83517663  0.24951200 -0.00056989
   0.58052445  0.37449581  0.00217534
   0.75230160  0.37470621 -0.00077740
   0.49804251  0.49984548 -0.00013324
   0.66650286  0.50046439  0.00019793
   0.83504051  0.50054511 -0.00048987
   0.58043688  0.62500000 -0.00004912
   0.75296485  0.62500000  0.00069455
   0.49804251  0.75015452 -0.00013324
   0.66650286  0.74953561  0.00019793
   0.83504051  0.74945489 -0.00048987
   0.58052445  0.87550419  0.00217534
   0.75230160  0.87529379 -0.00077740
   0.41664338  0.12500000  0.10596925
Direct configuration=     7
  -0.00174925  0.00045194 -0.00058219
   0.16405412 -0.00024381 -0.00013591
   0.33521977  0.00013630  0.00323356
   0.08055107  0.12500000  0.00270835
   0.25496691  0.12500000  0.00354675
  -0.00174925  0.24954806 -0.00058219
   0.16405412  0.25024381 -0.00013591
   0.33521977  0.24986370  0.00323356
   0.08086267  0.37483109 -0.00081204
   0.25289638  0.37436238  0.00226982
   0.99834985  0.50049646 -0.00050102
   0.16676854  0.50044561  0.00020424
   0.33536283  0.49985802 -0.00014744
   0.08039301  0.62500000  0.00073628
   0.25296274  0.62500000 -0.00006078
   0.99834985  0.74950354 -0.00050102
   0.16676854  0.74955439  0.00020424
   0.33536283  0.75014198 -0.00014744
   0.08086267  0.87516891 -0.00081204
   0.25289638  0.87563762  0.00226982
   0.49811931  0.00014902  0.00323579
   0.66927433 -0.00020536 -0.00013907
   0.83510472  0.00045136 -0.00059257
   0.57835898  0.12500000  0.00354537
   0.75279521  0.12500000  0.00272388
   0.49811931  0.24985098  0.00323579
   0.66927433  0.25020536 -0.00013907
   0.83510472  0.24954864 -0.00059257
   0.58046388  0.37435067  0.00225811
   0.75244790  0.37480592 -0.00080933
   0.49798986  0.49984889 -0.00012774
   0.66653828  0.50042491  0.00020656
   0.83499012  0.50046764 -0.00051588
   0.58036954  0.62500000 -0.00005711
   0.75296304  0.62500000  0.00072842
   0.49798986  0.75015111 -0.00012774
   0.66653828  0.74957509  0.00020656
   0.83499012  0.74953236 -0.00051588
   0.58046388  0.87564933  0.00225811
   0.75244790  0.87519408 -0.00080933
   0.41664283  0.12500000  0.10536904
Direct configuration=     8
  -0.00155498  0.00026738 -0.00062459
   0.16409792 -0.00048449 -0.00008079
   0.33536072 -0.00008561  0.00312705
   0.08052340  0.12500000  0.00300105
   0.25409882  0.12500000  0.00337498
  -0.00155498  0.24973262 -0.00062459
   0.16409792  0.25048449 -0.00008079
   0.33536072  0.25008561  0.00312705
   0.08085126  0.37436056 -0.00089830
   0.25265107  0.37490640  0.00249799
   0.99821533  0.50051058 -0.00059198
   0.16687706  0.50021899  0.00023479
   0.33525840  0.49977235 -0.00009200
   0.08043999  0.62500000  0.00084617
   0.25307646  0.62500000 -0.00008917
   0.99821533  0.74948942 -0.00059198
   0.16687706  0.74978101  0.00023479
   0.33525840  0.75022765 -0.00009200
   0.08085126  0.87563944 -0.00089830
   0.25265107  0.87509360  0.00249799
   0.49796491 -0.00007597  0.00312507
   0.66925742 -0.00045630 -0.00008377
   0.83491826  0.00026621 -0.00063854
   0.57920786  0.12500000  0.00337807
   0.75282265  0.12500000  0.00301089
   0.49796491  0.25007597  0.00312507
   0.66925742  0.25045630 -0.00008377
   0.83491826  0.24973379 -0.00063854
   0.58068748  0.37488342  0.00248573
   0.75245951  0.37433885 -0.00090210
   0.49809663  0.49976812 -0.00006805
   0.66643438  0.50020738  0.00023651
   0.83512763  0.50048736 -0.00061064
   0.58026120  0.62500000 -0.00008486
   0.75290038  0.62500000  0.00084073
   0.49809663  0.75023188 -0.00006805
   0.66643438  0.74979262  0.00023651
   0.83512763  0.74951264 -0.00061064
   0.58068748  0.87511658  0.00248573
   0.75245951  0.87566115 -0.00090210
   0.41665322  0.12500000  0.10481935
Direct configuration=     9
  -0.00152728  0.00024107 -0.00063063
   0.16410416 -0.00051880 -0.00007293
   0.33538082 -0.00011724  0.00311187
   0.08051946  0.12500000  0.00304278
   0.25397507  0.12500000  0.00335049
  -0.00152728  0.24975893 -0.00063063
   0.16410416  0.25051880 -0.00007293
   0.33538082  0.25011724  0.00311187
   0.08084963  0.37429348 -0.00091060
   0.25261610  0.37498395  0.00253052
   0.99819615  0.50051260 -0.00060494
   0.16689253  0.50018668  0.00023915
   0.33524351  0.49976013 -0.00008410
   0.08044669  0.62500000  0.00086183
   0.25309268  0.62500000 -0.00009321
   0.99819615  0.74948740 -0.00060494
   0.16689253  0.74981332  0.00023915
   0.33524351  0.75023987 -0.00008410
   0.08084963  0.87570652 -0.00091060
   0.25261610  0.87501605  0.00253052
   0.49794289 -0.00010804  0.00310928
   0.66925501 -0.00049207 -0.00007588
   0.83489168  0.00023982 -0.00064509
   0.57932888  0.12500000  0.00335422
   0.75282656  0.12500000  0.00305180
   0.49794289  0.25010804  0.00310928
   0.66925501  0.25049207 -0.00007588
   0.83489168  0.24976018 -0.00064509
   0.58071935  0.37495937  0.00251818
   0.75246116  0.37427227 -0.00091533
   0.49811185  0.49975660 -0.00005954
   0.66641957  0.50017636  0.00024078
   0.83514724  0.50049017 -0.00062415
   0.58024576  0.62500000 -0.00008882
   0.75289145  0.62500000  0.00085674
   0.49811185  0.75024340 -0.00005954
   0.66641957  0.74982364  0.00024078
   0.83514724  0.74950983 -0.00062415
   0.58071935  0.87504063  0.00251818
   0.75246116  0.87572773 -0.00091533
   0.41665471  0.12500000  0.10474099
Direct configuration=    10
  -0.00172410  0.00026027 -0.00065520
   0.16410689 -0.00063577 -0.00002532
   0.33527682 -0.00012467  0.00295034
   0.08035391  0.12500000  0.00331611
   0.25389862  0.12500000  0.00316227
  -0.00172410  0.24973973 -0.00065520
   0.16410689  0.25063577 -0.00002532
   0.33527682  0.25012467  0.00295034
   0.08090828  0.37434989 -0.00099083
   0.25242868  0.37510279  0.00274624
   0.99824076  0.50048157 -0.00069993
   0.16680305  0.50020805  0.00026775
   0.33529747  0.49982855 -0.00001214
   0.08057562  0.62500000  0.00095047
   0.25306268  0.62500000 -0.00010739
   0.99824076  0.74951843 -0.00069993
   0.16680305  0.74979195  0.00026775
   0.33529747  0.75017145 -0.00001214
   0.08090828  0.87565011 -0.00099083
   0.25242868  0.87489721  0.00274624
   0.49803536 -0.00011408  0.00294476
   0.66924457 -0.00060875 -0.00002573
   0.83510290  0.00025844 -0.00067587
   0.57940594  0.12500000  0.00316647
   0.75299462  0.12500000  0.00331485
   0.49803536  0.25011408  0.00294476
   0.66924457  0.25060875 -0.00002573
   0.83510290  0.24974156 -0.00067587
   0.58090869  0.37508205  0.00273002
   0.75241438  0.37431352 -0.00100307
   0.49805631  0.49983273  0.00001178
   0.66649438  0.50020334  0.00026915
   0.83510906  0.50046426 -0.00072335
   0.58027251  0.62500000 -0.00010161
   0.75276402  0.62500000  0.00095887
   0.49805631  0.75016727  0.00001178
   0.66649438  0.74979666  0.00026915
   0.83510906  0.74953574 -0.00072335
   0.58090869  0.87491795  0.00273002
   0.75241438  0.87568648 -0.00100307
   0.41665506  0.12500000  0.10445273
Direct configuration=    11
  -0.00195179  0.00028249 -0.00068362
   0.16411005 -0.00077110  0.00002975
   0.33515651 -0.00013326  0.00276347
   0.08016240  0.12500000  0.00363233
   0.25381017  0.12500000  0.00294451
  -0.00195179  0.24971751 -0.00068362
   0.16411005  0.25077110  0.00002975
   0.33515651  0.25013326  0.00276347
   0.08097614  0.37441514 -0.00108364
   0.25221184  0.37524028  0.00299582
   0.99829237  0.50044567 -0.00080982
   0.16669952  0.50023276  0.00030085
   0.33535989  0.49990771  0.00007111
   0.08072478  0.62500000  0.00105302
   0.25302797  0.62500000 -0.00012379
   0.99829237  0.74955433 -0.00080982
   0.16669952  0.74976724  0.00030085
   0.33535989  0.75009229  0.00007111
   0.08097614  0.87558486 -0.00108364
   0.25221184  0.87475972  0.00299582
   0.49814233 -0.00012107  0.00275442
   0.66923249 -0.00074375  0.00003230
   0.83534727  0.00028000 -0.00071147
   0.57949510  0.12500000  0.00294927
   0.75318905  0.12500000  0.00361919
   0.49814233  0.25012107  0.00275442
   0.66923249  0.25074375  0.00003230
   0.83534727  0.24972000 -0.00071147
   0.58112775  0.37522399  0.00297509
   0.75236025  0.37436123 -0.00110458
   0.49799206  0.49992079  0.00009430
   0.66658092  0.50023455  0.00030196
   0.83506490  0.50043428 -0.00083811
   0.58030346  0.62500000 -0.00011642
   0.75261660  0.62500000  0.00107702
   0.49799206  0.75007921  0.00009430
   0.66658092  0.74976545  0.00030196
   0.83506490  0.74956572 -0.00083811
   0.58112775  0.87477601  0.00297509
   0.75236025  0.87563877 -0.00110458
   0.41665546  0.12500000  0.10411924
Direct configuration=    12
  -0.00186767  0.00027668 -0.00069418
   0.16397961 -0.00075555  0.00007266
   0.33517463 -0.00015944  0.00259355
   0.08008158  0.12500000  0.00387866
   0.25378296  0.12500000  0.00275457
  -0.00186767  0.24972332 -0.00069418
   0.16397961  0.25075555  0.00007266
   0.33517463  0.25015944  0.00259355
   0.08093946  0.37450526 -0.00115173
   0.25215994  0.37519681  0.00319189
   0.99822942  0.50045878 -0.00090725
   0.16666647  0.50033861  0.00032856
   0.33534861  0.49997435  0.00016208
   0.08077099  0.62500000  0.00112178
   0.25298086  0.62500000 -0.00012132
   0.99822942  0.74954122 -0.00090725
   0.16666647  0.74966139  0.00032856
   0.33534861  0.75002565  0.00016208
   0.08093946  0.87549474 -0.00115173
   0.25215994  0.87480319  0.00319189
   0.49811307 -0.00015333  0.00258620
   0.66935533 -0.00072949  0.00007481
   0.83526842  0.00028249 -0.00072718
   0.57952240  0.12500000  0.00275956
   0.75327052  0.12500000  0.00385939
   0.49811307  0.25015333  0.00258620
   0.66935533  0.25072949  0.00007481
   0.83526842  0.24971751 -0.00072718
   0.58118653  0.37518570  0.00317176
   0.75240203  0.37445821 -0.00118492
   0.49800505  0.49998601  0.00017830
   0.66661150  0.50033611  0.00032925
   0.83512699  0.50044371 -0.00093719
   0.58034963  0.62500000 -0.00011091
   0.75257190  0.62500000  0.00115916
   0.49800505  0.75001399  0.00017830
   0.66661150  0.74966389  0.00032925
   0.83512699  0.74955629 -0.00093719
   0.58118653  0.87481430  0.00317176
   0.75240203  0.87554179 -0.00118492
   0.41666040  0.12500000  0.10385590
Direct configuration=    13
  -0.00172746  0.00026700 -0.00071178
   0.16376220 -0.00072962  0.00014417
   0.33520484 -0.00020308  0.00231033
   0.07994686  0.12500000  0.00428924
   0.25373761  0.12500000  0.00243797
  -0.00172746  0.24973300 -0.00071178
   0.16376220  0.25072962  0.00014417
   0.33520484  0.25020308  0.00231033
   0.08087831  0.37465548 -0.00126521
   0.25207344  0.37512436  0.00351871
   0.99812449  0.50048063 -0.00106966
   0.16661138  0.50051504  0.00037474
   0.33532981  0.50008543  0.00031372
   0.08084802  0.62500000  0.00123640
   0.25290234  0.62500000 -0.00011719
   0.99812449  0.74951937 -0.00106966
   0.16661138  0.74948496  0.00037474
   0.33532981  0.74991457  0.00031372
   0.08087831  0.87534452 -0.00126521
   0.25207344  0.87487564  0.00351871
   0.49806428 -0.00020711  0.00230580
   0.66956007 -0.00070571  0.00014568
   0.83513699  0.00028664 -0.00075337
   0.57956791  0.12500000  0.00244335
   0.75340631  0.12500000  0.00425977
   0.49806428  0.25020711  0.00230580
   0.66956007  0.25070571  0.00014568
   0.83513699  0.24971336 -0.00075337
   0.58128450  0.37512187  0.00349957
   0.75247165  0.37461985 -0.00131882
   0.49802671  0.50009471  0.00031831
   0.66666248  0.50050539  0.00037473
   0.83523048  0.50045944 -0.00110233
   0.58042658  0.62500000 -0.00010174
   0.75249738  0.62500000  0.00129608
   0.49802671  0.74990529  0.00031831
   0.66666248  0.74949461  0.00037473
   0.83523048  0.74954056 -0.00110233
   0.58128450  0.87487813  0.00349957
   0.75247165  0.87538015 -0.00131882
   0.41666861  0.12500000  0.10341696
Direct configuration=    14
  -0.00179816  0.00020084 -0.00069429
   0.16372031 -0.00066594  0.00017645
   0.33519356 -0.00021662  0.00213035
   0.08003806  0.12500000  0.00447921
   0.25374218  0.12500000  0.00224678
  -0.00179816  0.24979916 -0.00069429
   0.16372031  0.25066594  0.00017645
   0.33519356  0.25021662  0.00213035
   0.08082563  0.37462755 -0.00129537
   0.25212060  0.37513824  0.00365942
   0.99811054  0.50058427 -0.00116518
   0.16666291  0.50048805  0.00040047
   0.33528269  0.50004344  0.00044589
   0.08068301  0.62500000  0.00125445
   0.25287323  0.62500000 -0.00007188
   0.99811054  0.74941573 -0.00116518
   0.16666291  0.74951195  0.00040047
   0.33528269  0.74995656  0.00044589
   0.08082563  0.87537245 -0.00129537
   0.25212060  0.87486176  0.00365942
   0.49807810 -0.00022942  0.00213050
   0.66960581 -0.00063695  0.00017425
   0.83519609  0.00021758 -0.00074058
   0.57955452  0.12500000  0.00225274
   0.75329855  0.12500000  0.00444483
   0.49807810  0.25022942  0.00213050
   0.66960581  0.25063695  0.00017425
   0.83519609  0.24978242 -0.00074058
   0.58123307  0.37512570  0.00364309
   0.75252694  0.37460484 -0.00136829
   0.49807128  0.50004338  0.00043550
   0.66663533  0.50048211  0.00039948
   0.83523395  0.50056058 -0.00119804
   0.58046420  0.62500000 -0.00005185
   0.75266185  0.62500000  0.00132505
   0.49807128  0.74995662  0.00043550
   0.66663533  0.74951789  0.00039948
   0.83523395  0.74943942 -0.00119804
   0.58123307  0.87487430  0.00364309
   0.75252694  0.87539516 -0.00136829
   0.41667710  0.12500000  0.10318338
Direct configuration=    15
  -0.00188047  0.00012382 -0.00067393
   0.16367155 -0.00059181  0.00021403
   0.33518041 -0.00023237  0.00192081
   0.08014424  0.12500000  0.00470039
   0.25374750  0.12500000  0.00202420
  -0.00188047  0.24987618 -0.00067393
   0.16367155  0.25059181  0.00021403
   0.33518041  0.25023237  0.00192081
   0.08076429  0.37459503 -0.00133049
   0.25217549  0.37515440  0.00382324
   0.99809430  0.50070494 -0.00127639
   0.16672290  0.50045662  0.00043043
   0.33522784  0.49999456  0.00059975
   0.08049089  0.62500000  0.00127546
   0.25283935  0.62500000 -0.00001912
   0.99809430  0.74929506 -0.00127639
   0.16672290  0.74954338  0.00043043
   0.33522784  0.75000544  0.00059975
   0.08076429  0.87540497 -0.00133049
   0.25217549  0.87484560  0.00382324
   0.49809418 -0.00025538  0.00192641
   0.66965906 -0.00055689  0.00020751
   0.83526490  0.00013718 -0.00072569
   0.57953893  0.12500000  0.00203083
   0.75317310  0.12500000  0.00466027
   0.49809418  0.25025538  0.00192641
   0.66965906  0.25055689  0.00020751
   0.83526490  0.24986282 -0.00072569
   0.58117320  0.37513015  0.00381018
   0.75259132  0.37458736 -0.00142589
   0.49812318  0.49998362  0.00057194
   0.66660372  0.50045501  0.00042829
   0.83523799  0.50067834 -0.00130945
   0.58050800  0.62500000  0.00000624
   0.75285334  0.62500000  0.00135878
   0.49812318  0.75001638  0.00057194
   0.66660372  0.74954499  0.00042829
   0.83523799  0.74932166 -0.00130945
   0.58117320  0.87486985  0.00381018
   0.75259132  0.87541264 -0.00142589
   0.41668697  0.12500000  0.10291144
Direct configuration=    16
  -0.00186317  0.00013767 -0.00061082
   0.16372207 -0.00063240  0.00021799
   0.33518300 -0.00021952  0.00174842
   0.08015063  0.12500000  0.00480240
   0.25380138  0.12500000  0.00184844
  -0.00186317  0.24986233 -0.00061082
   0.16372207  0.25063240  0.00021799
   0.33518300  0.25021952  0.00174842
   0.08077358  0.37459222 -0.00130788
   0.25216625  0.37510180  0.00388140
   0.99814532  0.50071946 -0.00136737
   0.16669278  0.50035908  0.00045506
   0.33530690  0.49995269  0.00076750
   0.08045146  0.62500000  0.00121968
   0.25281088  0.62500000  0.00009159
   0.99814532  0.74928054 -0.00136737
   0.16669278  0.74964092  0.00045506
   0.33530690  0.75004731  0.00076750
   0.08077358  0.87540778 -0.00130788
   0.25216625  0.87489820  0.00388140
   0.49811334 -0.00023185  0.00176162
   0.66961150 -0.00060118  0.00020519
   0.83522220  0.00014358 -0.00067153
   0.57948191  0.12500000  0.00185132
   0.75316127  0.12500000  0.00475452
   0.49811334  0.25023185  0.00176162
   0.66961150  0.25060118  0.00020519
   0.83522220  0.24985642 -0.00067153
   0.58118799  0.37508851  0.00386725
   0.75256998  0.37456522 -0.00142862
   0.49805382  0.49993781  0.00073134
   0.66662660  0.50035483  0.00045116
   0.83518904  0.50068722 -0.00139688
   0.58053486  0.62500000  0.00011929
   0.75290149  0.62500000  0.00131635
   0.49805382  0.75006219  0.00073134
   0.66662660  0.74964517  0.00045116
   0.83518904  0.74931278 -0.00139688
   0.58118799  0.87491149  0.00386725
   0.75256998  0.87543478 -0.00142862
   0.41669369  0.12500000  0.10271878
Direct configuration=    17
  -0.00183212  0.00016252 -0.00049763
   0.16381269 -0.00070522  0.00022508
   0.33518763 -0.00019645  0.00143920
   0.08016208  0.12500000  0.00498536
   0.25389802  0.12500000  0.00153319
  -0.00183212  0.24983748 -0.00049763
   0.16381269  0.25070522  0.00022508
   0.33518763  0.25019645  0.00143920
   0.08079023  0.37458716 -0.00126734
   0.25214967  0.37500744  0.00398571
   0.99823684  0.50074550 -0.00153055
   0.16663876  0.50018411  0.00049925
   0.33544871  0.49987760  0.00106839
   0.08038074  0.62500000  0.00111961
   0.25275982  0.62500000  0.00029015
   0.99823684  0.74925450 -0.00153055
   0.16663876  0.74981589  0.00049925
   0.33544871  0.75012240  0.00106839
   0.08079023  0.87541284 -0.00126734
   0.25214967  0.87499256  0.00398571
   0.49814770 -0.00018966  0.00146605
   0.66952621 -0.00068062  0.00020102
   0.83514562  0.00015506 -0.00057438
   0.57937963  0.12500000  0.00152933
   0.75314003  0.12500000  0.00492358
   0.49814770  0.25018966  0.00146605
   0.66952621  0.25068062  0.00020102
   0.83514562  0.24984494 -0.00057438
   0.58121453  0.37501382  0.00396961
   0.75253172  0.37452553 -0.00143351
   0.49792943  0.49985565  0.00101725
   0.66666764  0.50017514  0.00049218
   0.83510124  0.50070315 -0.00155369
   0.58058306  0.62500000  0.00032205
   0.75298786  0.62500000  0.00124025
   0.49792943  0.75014435  0.00101725
   0.66666764  0.74982486  0.00049218
   0.83510124  0.74929685 -0.00155369
   0.58121453  0.87498618  0.00396961
   0.75253172  0.87547447 -0.00143351
   0.41670574  0.12500000  0.10237321
Direct configuration=    18
  -0.00182278  0.00018007 -0.00045152
   0.16383791 -0.00070763  0.00022049
   0.33520763 -0.00018461  0.00134040
   0.08016918  0.12500000  0.00502637
   0.25391362  0.12500000  0.00143387
  -0.00182278  0.24981993 -0.00045152
   0.16383791  0.25070763  0.00022049
   0.33520763  0.25018461  0.00134040
   0.08079342  0.37458187 -0.00124592
   0.25215283  0.37499025  0.00400471
   0.99821759  0.50072845 -0.00158123
   0.16664147  0.50016978  0.00051444
   0.33543192  0.49986516  0.00117146
   0.08041400  0.62500000  0.00107350
   0.25275557  0.62500000  0.00036688
   0.99821759  0.74927155 -0.00158123
   0.16664147  0.74983022  0.00051444
   0.33543192  0.75013484  0.00117146
   0.08079342  0.87541813 -0.00124592
   0.25215283  0.87500975  0.00400471
   0.49813830 -0.00017545  0.00137176
   0.66949675 -0.00068122  0.00019288
   0.83513245  0.00017355 -0.00053426
   0.57936826  0.12500000  0.00142787
   0.75313346  0.12500000  0.00495781
   0.49813830  0.25017545  0.00137176
   0.66949675  0.25068122  0.00019288
   0.83513245  0.24982645 -0.00053426
   0.58121463  0.37499635  0.00398736
   0.75252244  0.37452014 -0.00142698
   0.49794809  0.49984327  0.00111805
   0.66666011  0.50016047  0.00050635
   0.83511903  0.50068363 -0.00160274
   0.58058562  0.62500000  0.00040057
   0.75295920  0.62500000  0.00120331
   0.49794809  0.75015673  0.00111805
   0.66666011  0.74983953  0.00050635
   0.83511903  0.74931637 -0.00160274
   0.58121463  0.87500365  0.00398736
   0.75252244  0.87547986 -0.00142698
   0.41670753  0.12500000  0.10226933
Direct configuration=    19
  -0.00179476  0.00023271 -0.00031318
   0.16391356 -0.00071488  0.00020674
   0.33526760 -0.00014910  0.00104401
   0.08019050  0.12500000  0.00514937
   0.25396041  0.12500000  0.00113591
  -0.00179476  0.24976729 -0.00031318
   0.16391356  0.25071488  0.00020674
   0.33526760  0.25014910  0.00104401
   0.08080296  0.37456601 -0.00118164
   0.25216231  0.37493869  0.00406169
   0.99815986  0.50067731 -0.00173327
   0.16664961  0.50012678  0.00056002
   0.33538155  0.49982786  0.00148066
   0.08051377  0.62500000  0.00093517
   0.25274284  0.62500000  0.00059704
   0.99815986  0.74932269 -0.00173327
   0.16664961  0.74987322  0.00056002
   0.33538155  0.75017214  0.00148066
   0.08080296  0.87543399 -0.00118164
   0.25216231  0.87506131  0.00406169
   0.49811007 -0.00013283  0.00108889
   0.66940837 -0.00068304  0.00016844
   0.83509293  0.00022903 -0.00041391
   0.57933414  0.12500000  0.00112350
   0.75311375  0.12500000  0.00506050
   0.49811007  0.25013283  0.00108889
   0.66940837  0.25068304  0.00016844
   0.83509293  0.24977097 -0.00041391
   0.58121492  0.37494395  0.00404061
   0.75249463  0.37450397 -0.00140738
   0.49800406  0.49980612  0.00142045
   0.66663752  0.50011646  0.00054886