   2   2   0   0
  0.8961120E+03  0.1016000E-08  0.1176000E-08  0.1500000E-08  0.5000000E-15
  1.000000000000000E-004
  CAR 
 Beta12Borophene !The name of the system 
      2.29032578    -30.69885734  301     -8.86520820      1.00000000
    -30.699  0.0000E+00  0.0000E+00  0.0000E+00  0.0000E+00
    -30.589  0.0000E+00  0.0000E+00  0.0000E+00  0.0000E+00
    -30.479  0.0000E+00  0.0000E+00  0.0000E+00  0.0000E+00
    -30.369  0.0000E+00  0.0000E+00  0.0000E+00  0.0000E+00
    -30.259  0.0000E+00  0.0000E+00  0.0000E+00  0.0000E+00
    -30.149  0.0000E+00  0.0000E+00  0.0000E+00  0.0000E+00
    -30.039 -0.8605E-33 -0.5115E-32 -0.9463E-34 -0.5625E-33
    -29.929 -0.2962E-25 -0.1391E-24 -0.3257E-26 -0.1530E-25
    -29.819 -0.8877E-19 -0.3293E-18 -0.9761E-20 -0.3621E-19
    -29.709 -0.2214E-13 -0.6469E-13 -0.2435E-14 -0.7114E-14
    -29.599 -0.4768E-09 -0.1095E-08 -0.5243E-10 -0.1204E-09
    -29.489 -0.8238E-06 -0.1475E-05 -0.9064E-07 -0.1623E-06
    -29.379 -0.9659E-04 -0.1299E-03 -0.1071E-04 -0.1445E-04
    -29.269  0.1739E-03  0.4967E-03  0.8415E-05  0.4017E-04
    -29.159  0.6625E-02  0.7003E-02  0.7370E-03  0.8102E-03
    -29.049  0.2683E-02  0.1978E-02  0.1032E-02  0.1028E-02
    -28.939 -0.2803E-03 -0.2450E-03  0.1001E-02  0.1001E-02
    -28.829 -0.1085E-04 -0.6678E-05  0.1000E-02  0.1000E-02
    -28.720 -0.2117E-07 -0.1009E-07  0.1000E-02  0.1000E-02
    -28.610 -0.3157E-11 -0.1181E-11  0.1000E-02  0.1000E-02
    -28.500 -0.3837E-16 -0.1212E-16  0.1000E-02  0.1000E-02
    -28.390  0.0000E+00  0.0000E+00  0.1000E-02  0.1000E-02
    -28.280  0.0000E+00  0.0000E+00  0.1000E-02  0.1000E-02
    -28.170  0.0000E+00  0.0000E+00  0.1000E-02  0.1000E-02
    -28.060  0.0000E+00  0.0000E+00  0.1000E-02  0.1000E-02
    -27.950  0.0000E+00  0.0000E+00  0.1000E-02  0.1000E-02
    -27.840  0.0000E+00  0.0000E+00  0.1000E-02  0.1000E-02
    -27.730  0.0000E+00  0.0000E+00  0.1000E-02  0.1000E-02
    -27.620  0.0000E+00  0.0000E+00  0.1000E-02  0.1000E-02
    -27.510  0.0000E+00  0.0000E+00  0.1000E-02  0.1000E-02
    -27.400  0.0000E+00  0.0000E+00  0.1000E-02  0.1000E-02
    -27.290  0.0000E+00  0.0000E+00  0.1000E-02  0.1000E-02
    -27.180  0.0000E+00  0.0000E+00  0.1000E-02  0.1000E-02
    -27.070  0.0000E+00  0.0000E+00  0.1000E-02  0.1000E-02
    -26.960  0.0000E+00  0.0000E+00  0.1000E-02  0.1000E-02
    -26.850  0.0000E+00  0.0000E+00  0.1000E-02  0.1000E-02
    -26.740  0.0000E+00  0.0000E+00  0.1000E-02  0.1000E-02
    -26.630  0.0000E+00  0.0000E+00  0.1000E-02  0.1000E-02
    -26.520  0.0000E+00  0.0000E+00  0.1000E-02  0.1000E-02
    -26.410  0.0000E+00  0.0000E+00  0.1000E-02  0.1000E-02
    -26.300  0.0000E+00  0.0000E+00  0.1000E-02  0.1000E-02
    -26.190  0.0000E+00  0.0000E+00  0.1000E-02  0.1000E-02
    -26.080  0.0000E+00  0.0000E+00  0.1000E-02  0.1000E-02
    -25.970  0.0000E+00  0.0000E+00  0.1000E-02  0.1000E-02
    -25.860  0.0000E+00  0.0000E+00  0.1000E-02  0.1000E-02
    -25.750  0.0000E+00  0.0000E+00  0.1000E-02  0.1000E-02
    -25.641  0.0000E+00  0.0000E+00  0.1000E-02  0.1000E-02
    -25.531  0.0000E+00  0.0000E+00  0.1000E-02  0.1000E-02
    -25.421  0.0000E+00  0.0000E+00  0.1000E-02  0.1000E-02
    -25.311  0.0000E+00  0.0000E+00  0.1000E-02  0.1000E-02
    -25.201  0.0000E+00  0.0000E+00  0.1000E-02  0.1000E-02
    -25.091  0.0000E+00  0.0000E+00  0.1000E-02  0.1000E-02
    -24.981  0.0000E+00  0.0000E+00  0.1000E-02  0.1000E-02
    -24.871  0.0000E+00  0.0000E+00  0.1000E-02  0.1000E-02
    -24.761  0.0000E+00  0.0000E+00  0.1000E-02  0.1000E-02
    -24.651  0.0000E+00  0.0000E+00  0.1000E-02  0.1000E-02
    -24.541  0.0000E+00  0.0000E+00  0.1000E-02  0.1000E-02
    -24.431  0.0000E+00  0.0000E+00  0.1000E-02  0.1000E-02
    -24.321  0.0000E+00  0.0000E+00  0.1000E-02  0.1000E-02
    -24.211  0.0000E+00  0.0000E+00  0.1000E-02  0.1000E-02
    -24.101  0.0000E+00  0.0000E+00  0.1000E-02  0.1000E-02
    -23.991  0.0000E+00  0.0000E+00  0.1000E-02  0.1000E-02
    -23.881  0.0000E+00  0.0000E+00  0.1000E-02  0.1000E-02
    -23.771  0.0000E+00  0.0000E+00  0.1000E-02  0.1000E-02
    -23.661  0.0000E+00  0.0000E+00  0.1000E-02  0.1000E-02
    -23.551  0.0000E+00  0.0000E+00  0.1000E-02  0.1000E-02
    -23.441  0.0000E+00  0.0000E+00  0.1000E-02  0.1000E-02
    -23.331  0.0000E+00  0.0000E+00  0.1000E-02  0.1000E-02
    -23.221  0.0000E+00  0.0000E+00  0.1000E-02  0.1000E-02
    -23.111  0.0000E+00  0.0000E+00  0.1000E-02  0.1000E-02
    -23.001  0.0000E+00  0.0000E+00  0.1000E-02  0.1000E-02
    -22.891  0.0000E+00  0.0000E+00  0.1000E-02  0.1000E-02
    -22.781  0.0000E+00  0.0000E+00  0.1000E-02  0.1000E-02
    -22.671  0.0000E+00  0.0000E+00  0.1000E-02  0.1000E-02
    -22.562  0.0000E+00  0.0000E+00  0.1000E-02  0.1000E-02
    -22.452  0.0000E+00  0.0000E+00  0.1000E-02  0.1000E-02
    -22.342  0.0000E+00  0.0000E+00  0.1000E-02  0.1000E-02
    -22.232  0.0000E+00  0.0000E+00  0.1000E-02  0.1000E-02
    -22.122  0.0000E+00  0.0000E+00  0.1000E-02  0.1000E-02
    -22.012  0.0000E+00  0.0000E+00  0.1000E-02  0.1000E-02
    -21.902  0.0000E+00  0.0000E+00  0.1000E-02  0.1000E-02
    -21.792  0.0000E+00  0.0000E+00  0.1000E-02  0.1000E-02
    -21.682  0.0000E+00  0.0000E+00  0.1000E-02  0.1000E-02
    -21.572  0.0000E+00  0.0000E+00  0.1000E-02  0.1000E-02
    -21.462  0.0000E+00  0.0000E+00  0.1000E-02  0.1000E-02
    -21.352  0.0000E+00  0.0000E+00  0.1000E-02  0.1000E-02
    -21.242  0.0000E+00  0.0000E+00  0.1000E-02  0.1000E-02
    -21.132  0.0000E+00  0.0000E+00  0.1000E-02  0.1000E-02
    -21.022  0.0000E+00  0.0000E+00  0.1000E-02  0.1000E-02
    -20.912  0.0000E+00  0.0000E+00  0.1000E-02  0.1000E-02
    -20.802  0.0000E+00  0.0000E+00  0.1000E-02  0.1000E-02
    -20.692  0.0000E+00  0.0000E+00  0.1000E-02  0.1000E-02
    -20.582  0.0000E+00  0.0000E+00  0.1000E-02  0.1000E-02
    -20.472  0.0000E+00  0.0000E+00  0.1000E-02  0.1000E-02
    -20.362  0.0000E+00  0.0000E+00  0.1000E-02  0.1000E-02
    -20.252  0.0000E+00  0.0000E+00  0.1000E-02  0.1000E-02
    -20.142  0.0000E+00  0.0000E+00  0.1000E-02  0.1000E-02
    -20.032  0.0000E+00  0.0000E+00  0.1000E-02  0.1000E-02
    -19.922  0.0000E+00  0.0000E+00  0.1000E-02  0.1000E-02
    -19.812  0.0000E+00  0.0000E+00  0.1000E-02  0.1000E-02
    -19.702  0.0000E+00  0.0000E+00  0.1000E-02  0.1000E-02
    -19.592  0.0000E+00  0.0000E+00  0.1000E-02  0.1000E-02
    -19.483  0.0000E+00  0.0000E+00  0.1000E-02  0.1000E-02
    -19.373  0.0000E+00  0.0000E+00  0.1000E-02  0.1000E-02
    -19.263  0.0000E+00  0.0000E+00  0.1000E-02  0.1000E-02
    -19.153  0.0000E+00  0.0000E+00  0.1000E-02  0.1000E-02
    -19.043  0.0000E+00  0.0000E+00  0.1000E-02  0.1000E-02
    -18.933  0.0000E+00  0.0000E+00  0.1000E-02  0.1000E-02
    -18.823  0.0000E+00  0.0000E+00  0.1000E-02  0.1000E-02
    -18.713  0.0000E+00  0.0000E+00  0.1000E-02  0.1000E-02
    -18.603  0.0000E+00  0.0000E+00  0.1000E-02  0.1000E-02
    -18.493  0.0000E+00  0.0000E+00  0.1000E-02  0.1000E-02
    -18.383  0.0000E+00  0.0000E+00  0.1000E-02  0.1000E-02
    -18.273  0.0000E+00  0.0000E+00  0.1000E-02  0.1000E-02
    -18.163  0.0000E+00  0.0000E+00  0.1000E-02  0.1000E-02
    -18.053  0.0000E+00  0.0000E+00  0.1000E-02  0.1000E-02
    -17.943  0.0000E+00  0.0000E+00  0.1000E-02  0.1000E-02
    -17.833  0.0000E+00  0.0000E+00  0.1000E-02  0.1000E-02
    -17.723  0.0000E+00  0.0000E+00  0.1000E-02  0.1000E-02
    -17.613  0.0000E+00  0.0000E+00  0.1000E-02  0.1000E-02
    -17.503  0.0000E+00  0.0000E+00  0.1000E-02  0.1000E-02
    -17.393  0.0000E+00  0.0000E+00  0.1000E-02  0.1000E-02
    -17.283  0.0000E+00  0.0000E+00  0.1000E-02  0.1000E-02
    -17.173  0.0000E+00  0.0000E+00  0.1000E-02  0.1000E-02
    -17.063  0.0000E+00  0.0000E+00  0.1000E-02  0.1000E-02
    -16.953  0.0000E+00  0.0000E+00  0.1000E-02  0.1000E-02
    -16.843  0.0000E+00  0.0000E+00  0.1000E-02  0.1000E-02
    -16.733  0.0000E+00  0.0000E+00  0.1000E-02  0.1000E-02
    -16.623  0.0000E+00  0.0000E+00  0.1000E-02  0.1000E-02
    -16.514  0.0000E+00  0.0000E+00  0.1000E-02  0.1000E-02
    -16.404  0.0000E+00  0.0000E+00  0.1000E-02  0.1000E-02
    -16.294  0.0000E+00  0.0000E+00  0.1000E-02  0.1000E-02
    -16.184  0.0000E+00  0.0000E+00  0.1000E-02  0.1000E-02
    -16.074  0.0000E+00  0.0000E+00  0.1000E-02  0.1000E-02
    -15.964  0.0000E+00  0.0000E+00  0.1000E-02  0.1000E-02
    -15.854  0.0000E+00  0.0000E+00  0.1000E-02  0.1000E-02
    -15.744  0.0000E+00  0.0000E+00  0.1000E-02  0.1000E-02
    -15.634  0.0000E+00  0.0000E+00  0.1000E-02  0.1000E-02
    -15.524  0.0000E+00  0.0000E+00  0.1000E-02  0.1000E-02
    -15.414  0.0000E+00  0.0000E+00  0.1000E-02  0.1000E-02
    -15.304  0.0000E+00  0.0000E+00  0.1000E-02  0.1000E-02
    -15.194  0.0000E+00  0.0000E+00  0.1000E-02  0.1000E-02
    -15.084  0.0000E+00  0.0000E+00  0.1000E-02  0.1000E-02
    -14.974  0.0000E+00  0.0000E+00  0.1000E-02  0.1000E-02
    -14.864 -0.7927E-36 -0.2890E-34  0.1000E-02  0.1000E-02
    -14.754 -0.6680E-28 -0.1544E-26  0.1000E-02  0.1000E-02
    -14.644 -0.4914E-21 -0.7197E-20  0.1000E-02  0.1000E-02
    -14.534 -0.3037E-15 -0.2804E-14  0.1000E-02  0.1000E-02
    -14.424 -0.1628E-10 -0.9462E-10  0.1000E-02  0.1000E-02
    -14.314 -0.7174E-07 -0.2594E-06  0.1000E-02  0.1000E-02
    -14.204 -0.2353E-04 -0.5090E-04  0.9974E-03  0.9944E-03
    -14.094 -0.2985E-03 -0.1817E-03  0.9646E-03  0.9744E-03
    -13.984  0.4024E-02  0.5507E-02  0.1407E-02  0.1580E-02
    -13.874  0.5610E-02  0.4141E-02  0.2024E-02  0.2035E-02
    -13.764 -0.1638E-03 -0.2960E-03  0.2006E-02  0.2003E-02
    -13.654 -0.5373E-04 -0.2504E-04  0.2000E-02  0.2000E-02
    -13.544 -0.2849E-06 -0.7934E-07  0.2000E-02  0.2000E-02
    -13.435 -0.1077E-09 -0.1866E-10  0.2000E-02  0.2000E-02
    -13.325 -0.3308E-14 -0.3594E-15  0.2000E-02  0.2000E-02
    -13.215  0.0000E+00  0.0000E+00  0.2000E-02  0.2000E-02
    -13.105  0.0000E+00  0.0000E+00  0.2000E-02  0.2000E-02
    -12.995  0.0000E+00  0.0000E+00  0.2000E-02  0.2000E-02
    -12.885  0.0000E+00  0.0000E+00  0.2000E-02  0.2000E-02
    -12.775  0.0000E+00  0.0000E+00  0.2000E-02  0.2000E-02
    -12.665  0.0000E+00  0.0000E+00  0.2000E-02  0.2000E-02
    -12.555 -0.2574E-34 -0.7802E-34  0.2000E-02  0.2000E-02
    -12.445 -0.1525E-26 -0.4012E-26  0.2000E-02  0.2000E-02
    -12.335 -0.7885E-20 -0.1799E-19  0.2000E-02  0.2000E-02
    -12.225 -0.3411E-14 -0.6741E-14  0.2000E-02  0.2000E-02
    -12.115 -0.1279E-09 -0.2187E-09  0.2000E-02  0.2000E-02
    -12.005 -0.3906E-06 -0.5760E-06  0.2000E-02  0.2000E-02
    -11.895 -0.8625E-04 -0.1081E-03  0.1990E-02  0.1988E-02
    -11.785 -0.4529E-03 -0.3234E-03  0.1941E-02  0.1952E-02
    -11.675  0.1038E-01  0.1124E-01  0.3082E-02  0.3189E-02
    -11.565  0.8978E-02  0.8021E-02  0.4069E-02  0.4071E-02
    -11.455 -0.5663E-03 -0.5976E-03  0.4007E-02  0.4005E-02
    -11.345 -0.6011E-04 -0.4672E-04  0.4000E-02  0.4000E-02
    -11.235 -0.2138E-06 -0.1418E-06  0.4000E-02  0.4000E-02
    -11.125 -0.5600E-10 -0.3206E-10  0.4000E-02  0.4000E-02
    -11.015 -0.1199E-14 -0.5955E-15  0.4000E-02  0.4000E-02
    -10.905  0.0000E+00  0.0000E+00  0.4000E-02  0.4000E-02
    -10.795  0.0000E+00  0.0000E+00  0.4000E-02  0.4000E-02
    -10.685  0.0000E+00  0.0000E+00  0.4000E-02  0.4000E-02
    -10.575  0.0000E+00  0.0000E+00  0.4000E-02  0.4000E-02
    -10.465  0.0000E+00  0.0000E+00  0.4000E-02  0.4000E-02
    -10.356  0.0000E+00  0.0000E+00  0.4000E-02  0.4000E-02
    -10.246  0.0000E+00  0.0000E+00  0.4000E-02  0.4000E-02
    -10.136  0.0000E+00  0.0000E+00  0.4000E-02  0.4000E-02
    -10.026  0.0000E+00  0.0000E+00  0.4000E-02  0.4000E-02
     -9.916  0.0000E+00 -0.1754E-35  0.4000E-02  0.4000E-02
     -9.806 -0.7630E-34 -0.1338E-27  0.4000E-02  0.4000E-02
     -9.696 -0.3599E-26 -0.8905E-21  0.4000E-02  0.4000E-02
     -9.586 -0.1480E-19 -0.4974E-15  0.4000E-02  0.4000E-02
     -9.476 -0.5081E-14 -0.2411E-10  0.4000E-02  0.4000E-02
     -9.366 -0.1510E-09 -0.9578E-07  0.4000E-02  0.4000E-02
     -9.256 -0.3632E-06 -0.2811E-04  0.4000E-02  0.3997E-02
     -9.146 -0.6171E-04 -0.2889E-03  0.3993E-02  0.3965E-02
     -9.036 -0.1098E-03  0.4360E-02  0.3981E-02  0.4445E-02
     -8.926  0.5869E-02  0.5308E-02  0.4626E-02  0.5028E-02
     -8.816  0.3719E-02 -0.2113E-03  0.5035E-02  0.5005E-02
     -8.706 -0.3015E-03 -0.4588E-04  0.5002E-02  0.5000E-02
     -8.596 -0.1994E-04 -0.2171E-06  0.5000E-02  0.5000E-02
     -8.486 -0.5500E-07 -0.7397E-10  0.5000E-02  0.5000E-02
     -8.376 -0.1137E-10 -0.2051E-14  0.5000E-02  0.5000E-02
     -8.266 -0.1938E-15  0.0000E+00  0.5000E-02  0.5000E-02
     -8.156  0.0000E+00  0.0000E+00  0.5000E-02  0.5000E-02
     -8.046  0.0000E+00  0.0000E+00  0.5000E-02  0.5000E-02
     -7.936  0.0000E+00  0.0000E+00  0.5000E-02  0.5000E-02
     -7.826  0.0000E+00  0.0000E+00  0.5000E-02  0.5000E-02
     -7.716  0.0000E+00  0.0000E+00  0.5000E-02  0.5000E-02
     -7.606  0.0000E+00  0.0000E+00  0.5000E-02  0.5000E-02
     -7.496  0.0000E+00  0.0000E+00  0.5000E-02  0.5000E-02
     -7.387  0.0000E+00  0.0000E+00  0.5000E-02  0.5000E-02
     -7.277  0.0000E+00  0.0000E+00  0.5000E-02  0.5000E-02
     -7.167  0.0000E+00  0.0000E+00  0.5000E-02  0.5000E-02
     -7.057  0.0000E+00  0.0000E+00  0.5000E-02  0.5000E-02
     -6.947  0.0000E+00  0.0000E+00  0.5000E-02  0.5000E-02
     -6.837  0.0000E+00  0.0000E+00  0.5000E-02  0.5000E-02
     -6.727  0.0000E+00  0.0000E+00  0.5000E-02  0.5000E-02
     -6.617  0.0000E+00  0.0000E+00  0.5000E-02  0.5000E-02
     -6.507  0.0000E+00  0.0000E+00  0.5000E-02  0.5000E-02
     -6.397  0.0000E+00  0.0000E+00  0.5000E-02  0.5000E-02
     -6.287  0.0000E+00  0.0000E+00  0.5000E-02  0.5000E-02
     -6.177  0.0000E+00  0.0000E+00  0.5000E-02  0.5000E-02
     -6.067  0.0000E+00  0.0000E+00  0.5000E-02  0.5000E-02
     -5.957  0.0000E+00  0.0000E+00  0.5000E-02  0.5000E-02
     -5.847  0.0000E+00  0.0000E+00  0.5000E-02  0.5000E-02
     -5.737  0.0000E+00  0.0000E+00  0.5000E-02  0.5000E-02
     -5.627  0.0000E+00  0.0000E+00  0.5000E-02  0.5000E-02
     -5.517  0.0000E+00  0.0000E+00  0.5000E-02  0.5000E-02
     -5.407  0.0000E+00  0.0000E+00  0.5000E-02  0.5000E-02
     -5.297  0.0000E+00  0.0000E+00  0.5000E-02  0.5000E-02
     -5.187  0.0000E+00  0.0000E+00  0.5000E-02  0.5000E-02
     -5.077  0.0000E+00  0.0000E+00  0.5000E-02  0.5000E-02
     -4.967  0.0000E+00  0.0000E+00  0.5000E-02  0.5000E-02
     -4.857  0.0000E+00  0.0000E+00  0.5000E-02  0.5000E-02
     -4.747  0.0000E+00  0.0000E+00  0.5000E-02  0.5000E-02
     -4.637  0.0000E+00  0.0000E+00  0.5000E-02  0.5000E-02
     -4.527  0.0000E+00  0.0000E+00  0.5000E-02  0.5000E-02
     -4.417  0.0000E+00  0.0000E+00  0.5000E-02  0.5000E-02
     -4.308  0.0000E+00  0.0000E+00  0.5000E-02  0.5000E-02
     -4.198  0.0000E+00  0.0000E+00  0.5000E-02  0.5000E-02
     -4.088  0.0000E+00  0.0000E+00  0.5000E-02  0.5000E-02
     -3.978  0.0000E+00  0.0000E+00  0.5000E-02  0.5000E-02
     -3.868  0.0000E+00  0.0000E+00  0.5000E-02  0.5000E-02
     -3.758  0.0000E+00  0.0000E+00  0.5000E-02  0.5000E-02
     -3.648  0.0000E+00  0.0000E+00  0.5000E-02  0.5000E-02
     -3.538  0.0000E+00  0.0000E+00  0.5000E-02  0.5000E-02
     -3.428  0.0000E+00  0.0000E+00  0.5000E-02  0.5000E-02
     -3.318  0.0000E+00  0.0000E+00  0.5000E-02  0.5000E-02
     -3.208  0.0000E+00  0.0000E+00  0.5000E-02  0.5000E-02
     -3.098  0.0000E+00  0.0000E+00  0.5000E-02  0.5000E-02
     -2.988 -0.8673E-37 -0.3853E-34  0.5000E-02  0.5000E-02
     -2.878 -0.1047E-28 -0.2168E-26  0.5000E-02  0.5000E-02
     -2.768 -0.1105E-21 -0.1064E-19  0.5000E-02  0.5000E-02
     -2.658 -0.9813E-16 -0.4367E-14  0.5000E-02  0.5000E-02
     -2.548 -0.7595E-11 -0.1554E-09  0.5000E-02  0.5000E-02
     -2.438 -0.4861E-07 -0.4497E-06  0.5000E-02  0.5000E-02
     -2.328 -0.2372E-04 -0.9366E-04  0.4997E-02  0.4990E-02
     -2.218 -0.5711E-03 -0.4118E-03  0.4935E-02  0.4944E-02
     -2.108  0.5649E-02  0.1069E-01  0.5556E-02  0.6120E-02
     -1.998  0.1307E-01  0.8636E-02  0.6993E-02  0.7070E-02
     -1.888  0.2486E-03 -0.5809E-03  0.7020E-02  0.7006E-02
     -1.778 -0.1820E-03 -0.5499E-04  0.7000E-02  0.7000E-02
     -1.668 -0.1473E-05 -0.1848E-06  0.7000E-02  0.7000E-02
     -1.558 -0.8138E-09 -0.4595E-10  0.7000E-02  0.7000E-02
     -1.448 -0.3614E-13 -0.9367E-15  0.7000E-02  0.7000E-02
     -1.338  0.0000E+00  0.0000E+00  0.7000E-02  0.7000E-02
     -1.229  0.0000E+00  0.0000E+00  0.7000E-02  0.7000E-02
     -1.119 -0.3257E-38 -0.6687E-38  0.7000E-02  0.7000E-02
     -1.009 -0.4128E-30 -0.7759E-30  0.7000E-02  0.7000E-02
     -0.899 -0.4572E-23 -0.7865E-23  0.7000E-02  0.7000E-02
     -0.789 -0.4283E-17 -0.6694E-17  0.7000E-02  0.7000E-02
     -0.679 -0.3466E-12 -0.4986E-12  0.7000E-02  0.7000E-02
     -0.569 -0.2332E-08 -0.3062E-08  0.7000E-02  0.7000E-02
     -0.459 -0.1205E-05 -0.1437E-05  0.7000E-02  0.7000E-02
     -0.349 -0.3423E-04 -0.3602E-04  0.6996E-02  0.6996E-02
     -0.239  0.2059E-03  0.2322E-03  0.7019E-02  0.7021E-02
     -0.129  0.1416E-02  0.1492E-02  0.7174E-02  0.7186E-02
     -0.019  0.3223E-02  0.3269E-02  0.7529E-02  0.7545E-02
      0.091  0.3580E-02  0.3545E-02  0.7923E-02  0.7935E-02
      0.201  0.1014E-02  0.8770E-03  0.8034E-02  0.8031E-02
      0.311  0.2188E-02  0.2197E-02  0.8275E-02  0.8273E-02
      0.421  0.5821E-02  0.5870E-02  0.8915E-02  0.8918E-02
      0.531  0.7456E-02  0.7491E-02  0.9735E-02  0.9742E-02
      0.641  0.1579E-02  0.1511E-02  0.9908E-02  0.9908E-02
      0.751  0.3664E-04  0.2498E-04  0.9912E-02  0.9911E-02
      0.861  0.7631E-03  0.7698E-03  0.9996E-02  0.9996E-02
      0.971  0.4778E-04  0.5521E-04  0.1000E-01  0.1000E-01
      1.081 -0.1371E-04 -0.1444E-04  0.1000E-01  0.1000E-01
      1.191 -0.1476E-06 -0.1640E-06  0.1000E-01  0.1000E-01
      1.301 -0.1047E-09 -0.1217E-09  0.1000E-01  0.1000E-01
      1.411 -0.5922E-14 -0.7195E-14  0.1000E-01  0.1000E-01
      1.521  0.0000E+00  0.0000E+00  0.1000E-01  0.1000E-01
      1.631  0.0000E+00  0.0000E+00  0.1000E-01  0.1000E-01
      1.741  0.0000E+00  0.0000E+00  0.1000E-01  0.1000E-01
      1.850  0.0000E+00  0.0000E+00  0.1000E-01  0.1000E-01
      1.960  0.0000E+00  0.0000E+00  0.1000E-01  0.1000E-01
      2.070  0.0000E+00  0.0000E+00  0.1000E-01  0.1000E-01
      2.180  0.0000E+00  0.0000E+00  0.1000E-01  0.1000E-01
      2.290  0.0000E+00  0.0000E+00  0.1000E-01  0.1000E-01
