    2    2 1000    2
  0.8961120E+03  0.1016000E-08  0.1176000E-08  0.1500000E-08  0.5000000E-15
  1.000000000000000E-004
  CAR 
 Beta12Borophene !The name of the system 
   10    4   10
 
  0.0000000E+00  0.0000000E+00  0.2500000E+00  0.1111111E+00
   1      -29.188728    -29.199349
   2      -13.973279    -13.993832
   3      -11.679963    -11.686367
   4      -11.679895    -11.686298
   5       -8.941132     -9.029405
   6       -2.080693     -2.115181
   7       -2.079759     -2.114276
   8       -0.209356     -0.213345
   9        0.223746      0.225765
  10        0.788871      0.790817
 
  0.3333333E+00  0.0000000E+00  0.2500000E+00  0.2222222E+00
   1      -29.188721    -29.199341
   2      -13.973282    -13.993836
   3      -11.679961    -11.686365
   4      -11.679892    -11.686296
   5       -8.941126     -9.029399
   6       -2.081510     -2.115964
   7       -2.080521     -2.115016
   8       -0.055021     -0.059207
   9        0.375115      0.376842
  10        0.458204      0.455192
 
  0.0000000E+00  0.3333333E+00  0.2500000E+00  0.2222222E+00
   1      -29.188720    -29.199341
   2      -13.973283    -13.993836
   3      -11.679957    -11.686361
   4      -11.679894    -11.686297
   5       -8.941133     -9.029406
   6       -2.081144     -2.115612
   7       -2.079741     -2.114259
   8       -0.103429     -0.107949
   9        0.292627      0.293150
  10        0.361161      0.359965
 
  0.3333333E+00  0.3333333E+00  0.2500000E+00  0.4444444E+00
   1      -29.188715    -29.199335
   2      -13.973282    -13.993835
   3      -11.679961    -11.686364
   4      -11.679892    -11.686295
   5       -8.941126     -9.029399
   6       -2.081450     -2.115906
   7       -2.080948     -2.115424
   8        0.049673      0.044974
   9        0.442887      0.443204
  10        0.514319      0.512798
