 vasp.5.3.3 18Dez12 (build Aug 26 2015 16:06:49) complex                        
  
 executed on             LinuxIFC date 2020.05.04  00:35:32
 running on    4 total cores
 distrk:  each k-point on    4 cores,    1 groups
 distr:  one band on NCORES_PER_BAND=   4 cores,    1 groups


--------------------------------------------------------------------------------------------------------


 INCAR:
 POTCAR:    PAW_PBE C 08Apr2002                   
 POTCAR:    PAW_PBE O 08Apr2002                   
 POTCAR:    PAW_PBE C 08Apr2002                   
   SHA256 =  253f7b50bb8d59471dbedb8285d89021f4a42ed1a2c5d38a03a736e69125dd95 C/
   COPYR  = (c) Copyright 08Apr2002 Georg Kresse                                
   COPYR  = This file is part of the software VASP. Any use, copying, and all ot
   COPYR  = If you do not have a valid VASP license, you may not use, copy or di
   VRHFIN =C: s2p2                                                              
   LEXCH  = PE                                                                  
   EATOM  =   147.1560 eV,   10.8157 Ry                                         
                                                                                
   TITEL  = PAW_PBE C 08Apr2002                                                 
   LULTRA =        F    use ultrasoft PP ?                                      
   IUNSCR =        1    unscreen: 0-lin 1-nonlin 2-no                           
   RPACOR =    1.200    partial core radius                                     
   POMASS =   12.011; ZVAL   =    4.000    mass and valenz                      
   RCORE  =    1.500    outmost cutoff radius                                   
   RWIGS  =    1.630; RWIGS  =    0.863    wigner-seitz radius (au A)           
   ENMAX  =  400.000; ENMIN  =  300.000 eV                                      
   ICORE  =        2    local potential                                         
   LCOR   =        T    correct aug charges                                     
   LPAW   =        T    paw PP                                                  
   EAUG   =  644.873                                                            
   DEXC   =    0.000                                                            
   RMAX   =    1.529    core radius for proj-oper                               
   RAUG   =    1.300    factor for augmentation sphere                          
   RDEP   =    1.501    radius for radial grids                                 
   RDEPT  =    1.300    core radius for aug-charge                              
                                                                                
   Atomic configuration                                                         
    4 entries                                                                   
     n  l   j            E        occ.                                          
     1  0  0.50      -273.3789   2.0000                                         
     2  0  0.50       -13.7508   2.0000                                         
     2  1  0.50        -5.2854   2.0000                                         
     3  2  1.50        -5.4423   0.0000                                         
   Description                                                                  
     l       E           TYP  RCUT    TYP  RCUT                                 
     0    -13.7508458     23  1.200                                             
     0     -8.2022199     23  1.200                                             
     1     -5.2854383     23  1.500                                             
     1     34.0145650     23  1.500                                             
     2     -5.4423304      7  1.500                                             
  local pseudopotential read in
  partial core-charges read in
  partial kinetic energy density read in
  atomic valenz-charges read in
  non local Contribution for L=           0  read in
    real space projection operators read in
  non local Contribution for L=           0  read in
    real space projection operators read in
  non local Contribution for L=           1  read in
    real space projection operators read in
  non local Contribution for L=           1  read in
    real space projection operators read in
    PAW grid and wavefunctions read in
 
   number of l-projection  operators is LMAX  =           4
   number of lm-projection operators is LMMAX =           8
 
 POTCAR:    PAW_PBE O 08Apr2002                   
   SHA256 =  818f92134a0a090dccd8ba1447fa70422a3b330e708bb4f08108d8ae51209ddf O/
   COPYR  = (c) Copyright 08Apr2002 Georg Kresse                                
   COPYR  = This file is part of the software VASP. Any use, copying, and all ot
   COPYR  = If you do not have a valid VASP license, you may not use, copy or di
   VRHFIN =O: s2p4                                                              
   LEXCH  = PE                                                                  
   EATOM  =   432.3788 eV,   31.7789 Ry                                         
                                                                                
   TITEL  = PAW_PBE O 08Apr2002                                                 
   LULTRA =        F    use ultrasoft PP ?                                      
   IUNSCR =        1    unscreen: 0-lin 1-nonlin 2-no                           
   RPACOR =    1.200    partial core radius                                     
   POMASS =   16.000; ZVAL   =    6.000    mass and valenz                      
   RCORE  =    1.520    outmost cutoff radius                                   
   RWIGS  =    1.550; RWIGS  =    0.820    wigner-seitz radius (au A)           
   ENMAX  =  400.000; ENMIN  =  300.000 eV                                      
   ICORE  =        2    local potential                                         
   LCOR   =        T    correct aug charges                                     
   LPAW   =        T    paw PP                                                  
   EAUG   =  605.392                                                            
   DEXC   =    0.000                                                            
   RMAX   =    1.553    core radius for proj-oper                               
   RAUG   =    1.300    factor for augmentation sphere                          
   RDEP   =    1.550    radius for radial grids                                 
   RDEPT  =    1.329    core radius for aug-charge                              
                                                                                
   Atomic configuration                                                         
    4 entries                                                                   
     n  l   j            E        occ.                                          
     1  0  0.50      -514.6923   2.0000                                         
     2  0  0.50       -23.9615   2.0000                                         
     2  1  0.50        -9.0305   4.0000                                         
     3  2  1.50        -9.5241   0.0000                                         
   Description                                                                  
     l       E           TYP  RCUT    TYP  RCUT                                 
     0    -23.9615318     23  1.200                                             
     0     -9.5240782     23  1.200                                             
     1     -9.0304911     23  1.520                                             
     1      8.1634956     23  1.520                                             
     2     -9.5240782      7  1.500                                             
  local pseudopotential read in
  partial core-charges read in
  partial kinetic energy density read in
  kinetic energy density of atom read in
  atomic valenz-charges read in
  non local Contribution for L=           0  read in
    real space projection operators read in
  non local Contribution for L=           0  read in
    real space projection operators read in
  non local Contribution for L=           1  read in
    real space projection operators read in
  non local Contribution for L=           1  read in
    real space projection operators read in
    PAW grid and wavefunctions read in
 
   number of l-projection  operators is LMAX  =           4
   number of lm-projection operators is LMMAX =           8
 

 ----------------------------------------------------------------------------- 
|                                                                             |
|  ADVICE TO THIS USER RUNNING 'VASP/VAMP'   (HEAR YOUR MASTER'S VOICE ...):  |
|                                                                             |
|      You have a (more or less) 'small supercell' and for smaller cells      |
|      it is recommended  to use the reciprocal-space projection scheme!      |
|      The real space optimization is not  efficient for small cells and it   |
|      is also less accurate ...                                              |
|      Therefore set LREAL=.FALSE. in the  INCAR file                         |
|                                                                             |
 ----------------------------------------------------------------------------- 

 Optimization of the real space projectors (new method)

 maximal supplied QI-value         = 25.13
 optimisation between [QCUT,QGAM] = [ 11.31, 22.87] = [ 35.82,146.48] Ry 
 Optimized for a Real-space Cutoff    1.00 Angstroem

   l    n(q)    QCUT    max X(q) W(low)/X(q) W(high)/X(q)  e(spline) 
   0      7    11.310   115.676    0.43E-03    0.13E-02    0.19E-06
   0      7    11.310    87.132    0.43E-03    0.13E-02    0.18E-06
   1      6    11.310     4.429    0.42E-03    0.74E-03    0.11E-06
   1      6    11.310     2.733    0.34E-03    0.55E-03    0.92E-07
 Optimization of the real space projectors (new method)

 maximal supplied QI-value         = 24.76
 optimisation between [QCUT,QGAM] = [ 11.39, 22.77] = [ 36.31,145.25] Ry 
 Optimized for a Real-space Cutoff    1.00 Angstroem

   l    n(q)    QCUT    max X(q) W(low)/X(q) W(high)/X(q)  e(spline) 
   0      7    11.387    20.381    0.39E-03    0.13E-02    0.15E-06
   0      7    11.387    15.268    0.42E-03    0.14E-02    0.17E-06
   1      6    11.387     5.964    0.41E-03    0.11E-02    0.17E-06
   1      6    11.387     5.382    0.39E-03    0.87E-03    0.15E-06
  PAW_PBE C 08Apr2002                   :
 energy of atom  1       EATOM= -147.1560
 kinetic energy error for atom=    0.0076 (will be added to EATOM!!)
  PAW_PBE O 08Apr2002                   :
 energy of atom  2       EATOM= -432.3788
 kinetic energy error for atom=    0.0224 (will be added to EATOM!!)
 
 
 POSCAR: MoleculeAdsorption                      
  positions in direct lattice
  velocities in cartesian coordinates
  No initial velocities read in
 exchange correlation table for  LEXCH =        8
   RHO(1)=    0.500       N(1)  =     2000
   RHO(2)=  100.500       N(2)  =     4000
 


--------------------------------------------------------------------------------------------------------


 ion  position               nearest neighbor table
   1  0.000  0.000  0.000-   2 1.22
   2  0.000  0.000  0.081-   1 1.22
 
  LATTYP: Found a simple orthorhombic cell.
 ALAT       =    10.1600000000
 B/A-ratio  =     1.1574803150
 C/A-ratio  =     1.4763779528
  
  Lattice vectors:
  
 A1 = (  10.1600000000,   0.0000000000,   0.0000000000)
 A2 = (   0.0000000000,  11.7600000000,   0.0000000000)
 A3 = (   0.0000000000,   0.0000000000,  15.0000000000)


Analysis of symmetry for initial positions (statically):
=====================================================================
 Subroutine PRICEL returns:
 Original cell was already a primitive cell.
 

 Routine SETGRP: Setting up the symmetry group for a 
 simple orthorhombic supercell.


 Subroutine GETGRP returns: Found  4 space group operations
 (whereof  4 operations were pure point group operations)
 out of a pool of  8 trial point group operations.


The static configuration has the point symmetry C_2v.


Analysis of symmetry for dynamics (positions and initial velocities):
=====================================================================
 Subroutine PRICEL returns:
 Original cell was already a primitive cell.
 

 Routine SETGRP: Setting up the symmetry group for a 
 simple orthorhombic supercell.


 Subroutine GETGRP returns: Found  4 space group operations
 (whereof  4 operations were pure point group operations)
 out of a pool of  8 trial point group operations.


The dynamic configuration has the point symmetry C_2v.


Analysis of magnetic symmetry:
=====================================================================

 Subroutine MAGSYM returns: Found  4 space group operations
 (whereof  4 operations were pure point group operations)
 out of a pool of  4 trial space group operations
 (whereof  4 operations were pure point group operations)
 and found also     1 'primitive' translations


The magnetic configuration has the point symmetry C_2v.


 irot  :   1
 --------------------------------------------------------------------
 isymop:   1   0   0
           0   1   0
           0   0   1

 gtrans:     0.0000000     0.0000000     0.0000000

 ptrans:     0.0000000     0.0000000     0.0000000
 rotmap:
 (   1->   1)  (   2->   2) 


 irot  :   2
 --------------------------------------------------------------------
 isymop:  -1   0   0
           0  -1   0
           0   0   1

 gtrans:     0.0000000     0.0000000     0.0000000

 ptrans:     0.0000000     0.0000000     0.0000000
 rotmap:
 (   1->   1)  (   2->   2) 


 irot  :   3
 --------------------------------------------------------------------
 isymop:   1   0   0
           0  -1   0
           0   0   1

 gtrans:     0.0000000     0.0000000     0.0000000

 ptrans:     0.0000000     0.0000000     0.0000000
 rotmap:
 (   1->   1)  (   2->   2) 


 irot  :   4
 --------------------------------------------------------------------
 isymop:  -1   0   0
           0   1   0
           0   0   1

 gtrans:     0.0000000     0.0000000     0.0000000

 ptrans:     0.0000000     0.0000000     0.0000000
 rotmap:
 (   1->   1)  (   2->   2) 
 
 
 KPOINTS: K-Points                                

Automatic generation of k-mesh.
Space group operators:
 irot       det(A)        alpha          n_x          n_y          n_z        tau_x        tau_y        tau_z
    1     1.000000     0.000000     1.000000     0.000000     0.000000     0.000000     0.000000     0.000000
    2     1.000000   180.000000     0.000000     0.000000     1.000000     0.000000     0.000000     0.000000
    3    -1.000000   180.000000     0.000000     1.000000     0.000000     0.000000     0.000000     0.000000
    4    -1.000000   180.000000     1.000000     0.000000     0.000000     0.000000     0.000000     0.000000
 
 Subroutine IBZKPT returns following result:
 ===========================================
 
 Found      4 irreducible k-points:
 
 Following reciprocal coordinates:
            Coordinates               Weight
  0.000000  0.000000  0.250000      2.000000
  0.333333  0.000000  0.250000      4.000000
  0.000000  0.333333  0.250000      4.000000
  0.333333  0.333333  0.250000      8.000000
 
 Following cartesian coordinates:
            Coordinates               Weight
  0.000000  0.000000  0.016667      2.000000
  0.032808  0.000000  0.016667      4.000000
  0.000000  0.028345  0.016667      4.000000
  0.032808  0.028345  0.016667      8.000000
 


--------------------------------------------------------------------------------------------------------




 Dimension of arrays:
   k-points           NKPTS =      4   k-points in BZ     NKDIM =      4   number of bands    NBANDS=     10
   number of dos      NEDOS =    301   number of ions     NIONS =      2
   non local maximal  LDIM  =      4   non local SUM 2l+1 LMDIM =      8
   total plane-waves  NPLWV = 301056
   max r-space proj   IRMAX =    762   max aug-charges    IRDMAX=   2379
   dimension x,y,z NGX =    56 NGY =   64 NGZ =   84
   dimension x,y,z NGXF=   112 NGYF=  128 NGZF=  168
   support grid    NGXF=   112 NGYF=  128 NGZF=  168
   ions per type =               1   1
 NGX,Y,Z   is equivalent  to a cutoff of   9.16,  9.05,  9.31 a.u.
 NGXF,Y,Z  is equivalent  to a cutoff of  18.33, 18.09, 18.62 a.u.


 I would recommend the setting:
   dimension x,y,z NGX =    56 NGY =   64 NGZ =   82
 SYSTEM =  Beta12Borophene !The name of the system 
 POSCAR =  MoleculeAdsorption                      

 Startparameter for this run:
   NWRITE =      2    write-flag & timer
   PREC   = normal    normal or accurate (medium, high low for compatibility)
   ISTART =      0    job   : 0-new  1-cont  2-samecut
   ICHARG =      2    charge: 1-file 2-atom 10-const
   ISPIN  =      2    spin polarized calculation?
   LNONCOLLINEAR =      F non collinear calculations
   LSORBIT =      F    spin-orbit coupling
   INIWAV =      1    electr: 0-lowe 1-rand  2-diag
   LASPH  =      F    aspherical Exc in radial PAW
   METAGGA=      F    non-selfconsistent MetaGGA calc.

 Electronic Relaxation 1
   ENCUT  =  500.0 eV  36.75 Ry    6.06 a.u.  18.52 21.44 27.35*2*pi/ulx,y,z
   ENINI  =  500.0     initial cutoff
   ENAUG  =  644.9 eV  augmentation charge cutoff
   NELM   =     60;   NELMIN=  2; NELMDL= -5     # of ELM steps 
   EDIFF  = 0.1E-03   stopping-criterion for ELM
   LREAL  =      T    real-space projection
   NLSPLINE    = F    spline interpolate recip. space projectors
   LCOMPAT=      F    compatible to vasp.4.4
   GGA_COMPAT  = T    GGA compatible to vasp.4.4-vasp.4.6
   LMAXPAW     = -100 max onsite density
   LMAXMIX     =    2 max onsite mixed and CHGCAR
   VOSKOWN=      0    Vosko Wilk Nusair interpolation
   ROPT   =   -0.00050  -0.00050
 Ionic relaxation
   EDIFFG = -.1E-01   stopping-criterion for IOM
   NSW    =   1000    number of steps for IOM
   NBLOCK =      1;   KBLOCK =   1000    inner block; outer block 
   IBRION =      2    ionic relax: 0-MD 1-quasi-New 2-CG
   NFREE  =      1    steps in history (QN), initial steepest desc. (CG)
   ISIF   =      2    stress and relaxation
   IWAVPR =     11    prediction:  0-non 1-charg 2-wave 3-comb
   ISYM   =      2    0-nonsym 1-usesym 2-fastsym
   LCORR  =      T    Harris-Foulkes like correction to forces

   POTIM  = 0.5000    time-step for ionic-motion
   TEIN   =    0.0    initial temperature
   TEBEG  =    0.0;   TEEND  =   0.0 temperature during run
   SMASS  =  -3.00    Nose mass-parameter (am)
   estimated Nose-frequenzy (Omega)   =  0.10E-29 period in steps =****** mass=  -0.236E-26a.u.
   SCALEE = 1.0000    scale energy and forces
   NPACO  =    256;   APACO  = 16.0  distance and # of slots for P.C.
   PSTRESS=    0.0 pullay stress

  Mass of Ions in am
   POMASS =  12.01 16.00
  Ionic Valenz
   ZVAL   =   4.00  6.00
  Atomic Wigner-Seitz radii
   RWIGS  =  -1.00 -1.00
  virtual crystal weights 
   VCA    =   1.00  1.00
   NELECT =      10.0000    total number of electrons
   NUPDOWN=      -1.0000    fix difference up-down

 DOS related values:
   EMIN   =  10.00;   EMAX   =-10.00  energy-range for DOS
   EFERMI =   0.00
   ISMEAR =     1;   SIGMA  =   0.10  broadening in eV -4-tet -1-fermi 0-gaus

 Electronic relaxation 2 (details)
   IALGO  =     38    algorithm
   LDIAG  =      T    sub-space diagonalisation (order eigenvalues)
   LSUBROT=      T    optimize rotation matrix (better conditioning)
   TURBO    =      0    0=normal 1=particle mesh
   IRESTART =      0    0=no restart 2=restart with 2 vectors
   NREBOOT  =      0    no. of reboots
   NMIN     =      0    reboot dimension
   EREF     =   0.00    reference energy to select bands
   IMIX   =      4    mixing-type and parameters
     AMIX     =   0.40;   BMIX     =  1.00
     AMIX_MAG =   1.60;   BMIX_MAG =  1.00
     AMIN     =   0.10
     WC   =   100.;   INIMIX=   1;  MIXPRE=   1;  MAXMIX= -45

 Intra band minimization:
   WEIMIN = 0.0010     energy-eigenvalue tresh-hold
   EBREAK =  0.25E-05  absolut break condition
   DEPER  =   0.30     relativ break condition  

   TIME   =   0.40     timestep for ELM

  volume/ion in A,a.u.               =     896.11      6047.26
  Fermi-wavevector in a.u.,A,eV,Ry     =   0.290365  0.548710  1.147131  0.084312
  Thomas-Fermi vector in A             =   1.149016
 
 Write flags
   LWAVE  =      F    write WAVECAR
   LCHARG =      F    write CHGCAR
   LVTOT  =      F    write LOCPOT, total local potential
   LVHAR  =      F    write LOCPOT, Hartree potential only
   LELF   =      F    write electronic localiz. function (ELF)
   LORBIT =      0    0 simple, 1 ext, 2 COOP (PROOUT)


 Dipole corrections
   LMONO  =      F    monopole corrections only (constant potential shift)
   LDIPOL =      T    correct potential (dipole corrections)
   IDIPOL =      3    1-x, 2-y, 3-z, 4-all directions 
   EPSILON=  1.0000000 bulk dielectric constant

 Exchange correlation treatment:
   GGA     =    PE    GGA type
   LEXCH   =     8    internal setting for exchange type
   VOSKOWN=      0    Vosko Wilk Nusair interpolation
   LHFCALC =     F    Hartree Fock is set to
   LHFONE  =     F    Hartree Fock one center treatment
   AEXX    =    0.0000 exact exchange contribution

 Linear response parameters
   LEPSILON=     F    determine dielectric tensor
   LRPA    =     F    only Hartree local field effects (RPA)
   LNABLA  =     F    use nabla operator in PAW spheres
   LVEL    =     F    velocity operator in full k-point grid
   LINTERFAST=   F  fast interpolation
   KINTER  =     0    interpolate to denser k-point grid
   CSHIFT  =0.1000    complex shift for real part using Kramers Kronig
   OMEGAMAX=  -1.0    maximum frequency
   DEG_THRESHOLD= 0.2000000E-02 threshold for treating states as degnerate
   RTIME   =    0.100 relaxation time in fs

 Orbital magnetization related:
   ORBITALMAG=     F  switch on orbital magnetization
   LCHIMAG   =     F  perturbation theory with respect to B field
   DQ        =  0.001000  dq finite difference perturbation B field



--------------------------------------------------------------------------------------------------------


 conjugate gradient relaxation of ions
 charge density and potential will be updated during run
 spin polarized calculation
 Variant of blocked Davidson
 Davidson routine will perform the subspace rotation
 perform sub-space diagonalisation
    after iterative eigenvector-optimisation
 modified Broyden-mixing scheme, WC =      100.0
 initial mixing is a Kerker type mixing with AMIX =  0.4000 and BMIX =      1.0000
 Hartree-type preconditioning will be used
 using additional bands            5
 real space projection scheme for non local part
 use partial core corrections
 calculate Harris-corrections to forces 
   (improved forces if not selfconsistent)
 use gradient corrections 
 use of overlap-Matrix (Vanderbilt PP)
 Methfessel and Paxton  Order N= 1 SIGMA  =   0.10


--------------------------------------------------------------------------------------------------------


  energy-cutoff  :      500.00
  volume of cell :     1792.22
      direct lattice vectors                 reciprocal lattice vectors
    10.160000000  0.000000000  0.000000000     0.098425197  0.000000000  0.000000000
     0.000000000 11.760000000  0.000000000     0.000000000  0.085034014  0.000000000
     0.000000000  0.000000000 15.000000000     0.000000000  0.000000000  0.066666667

  length of vectors
    10.160000000 11.760000000 15.000000000     0.098425197  0.085034014  0.066666667


 
 k-points in units of 2pi/SCALE and weight: K-Points                                
   0.00000000  0.00000000  0.01666667       0.111
   0.03280840  0.00000000  0.01666667       0.222
   0.00000000  0.02834467  0.01666667       0.222
   0.03280840  0.02834467  0.01666667       0.444
 
 k-points in reciprocal lattice and weights: K-Points                                
   0.00000000  0.00000000  0.25000000       0.111
   0.33333333  0.00000000  0.25000000       0.222
   0.00000000  0.33333333  0.25000000       0.222
   0.33333333  0.33333333  0.25000000       0.444
 
 position of ions in fractional coordinates (direct lattice) 
   0.00000000  0.00000000  0.00000000
   0.00000000  0.00000000  0.08130000
 
 position of ions in cartesian coordinates  (Angst):
   0.00000000  0.00000000  0.00000000
   0.00000000  0.00000000  1.21950000
 


--------------------------------------------------------------------------------------------------------


 k-point  1 :   0.0000 0.0000 0.2500  plane waves:   45501
 k-point  2 :   0.3333 0.0000 0.2500  plane waves:   45508
 k-point  3 :   0.0000 0.3333 0.2500  plane waves:   45494
 k-point  4 :   0.3333 0.3333 0.2500  plane waves:   45490

 maximum and minimum number of plane-waves per node :     11396    11341

 maximum number of plane-waves:     45508
 maximum index in each direction: 
   IXMAX=   18   IYMAX=   21   IZMAX=   27
   IXMIN=  -18   IYMIN=  -21   IZMIN=  -27

 WARNING: aliasing errors must be expected set NGX to  74 to avoid them
 WARNING: aliasing errors must be expected set NGY to  86 to avoid them
 WARNING: aliasing errors must be expected set NGZ to 110 to avoid them
 aliasing errors are usually negligible using standard VASP settings
 and one can safely disregard these warnings

 real space projection operators:
  total allocation   :         88.50 KBytes
  max/ min on nodes  :         23.25         20.50


 parallel 3D FFT for wavefunctions:
    minimum data exchange during FFTs selected (reduces bandwidth)
 parallel 3D FFT for charge:
    minimum data exchange during FFTs selected (reduces bandwidth)


 total amount of memory used by VASP on root node   122049. kBytes
========================================================================

   base      :      30000. kBytes
   nonlr-proj:         53. kBytes
   fftplans  :      22742. kBytes
   grid      :      54677. kBytes
   one-center:          6. kBytes
   wavefun   :      14571. kBytes
 
 Broyden mixing: mesh for mixing (old mesh)
   NGX = 37   NGY = 43   NGZ = 55
  (NGX  =112   NGY  =128   NGZ  =168)
  gives a total of  87505 points

 initial charge density was supplied:
 charge density of overlapping atoms calculated
 number of electron      10.0000000 magnetization       2.0000000
 keeping initial charge density in first step


--------------------------------------------------------------------------------------------------------


 Maximum index for non-local projection operator          187
 Maximum index for augmentation-charges          494 (set IRDMAX)


--------------------------------------------------------------------------------------------------------


 First call to EWALD:  gamma=   0.146
 Maximum number of real-space cells 3x 3x 2
 Maximum number of reciprocal cells 2x 3x 3

 FEWALD executed in parallel
    FEWALD:  cpu time    0.00: real time    0.00


----------------------------------------- Iteration    1(   1)  ---------------------------------------


    POTLOK:  cpu time    1.12: real time    1.12
    SETDIJ:  cpu time    0.01: real time    0.01
     EDDAV:  cpu time    2.00: real time    2.00
       DOS:  cpu time    0.00: real time    0.00
    --------------------------------------------
      LOOP:  cpu time    3.14: real time    3.14

 eigenvalue-minimisations  :   208
 total energy-change (2. order) : 0.6725705E+02  (-0.1894079E+03)
 number of electron      10.0000000 magnetization       2.0000000
 augmentation part       10.0000000 magnetization       2.0000000

 DIPCOR: dipole corrections for dipol
 direction  3 min pos    86,
 dipolmoment           0.000000      0.000000     -0.000006 electrons x Angstroem
 Tr[quadrupol]         0.997626

 energy correction for charged system         0.000000 eV
 dipol+quadrupol energy correction           -0.000000 eV
 added-field ion interaction          0.000004 eV  (added to PSCEN)


 Free energy of the ion-electron system (eV)
  ---------------------------------------------------
  alpha Z        PSCENC =         0.24381160
  Ewald energy   TEWEN  =       122.18749565
  -1/2 Hartree   DENC   =      -590.17911099
  -exchange  EXHF       =         0.00000000
  -V(xc)+E(xc)   XCENC  =        39.16375819
  PAW double counting   =       454.79982171     -457.15426643
  entropy T*S    EENTRO =        -0.01762376
  eigenvalues    EBANDS =       -81.29169622
  atomic energy  EATOM  =       579.50485627
  ---------------------------------------------------
  free energy    TOTEN  =        67.25704601 eV

  energy without entropy =       67.27466977  energy(sigma->0) =       67.26292059


--------------------------------------------------------------------------------------------------------




----------------------------------------- Iteration    1(   2)  ---------------------------------------


     EDDAV:  cpu time    2.47: real time    2.47
       DOS:  cpu time    0.00: real time    0.00
    --------------------------------------------
      LOOP:  cpu time    2.48: real time    2.48

 eigenvalue-minimisations  :   272
 total energy-change (2. order) :-0.6682162E+02  (-0.6073436E+02)
 number of electron      10.0000000 magnetization       2.0000000
 augmentation part       10.0000000 magnetization       2.0000000

 DIPCOR: dipole corrections for dipol
 direction  3 min pos    86,
 dipolmoment           0.000000      0.000000     -0.000006 electrons x Angstroem
 Tr[quadrupol]         0.997626

 energy correction for charged system         0.000000 eV
 dipol+quadrupol energy correction           -0.000000 eV
 added-field ion interaction          0.000004 eV  (added to PSCEN)


 Free energy of the ion-electron system (eV)
  ---------------------------------------------------
  alpha Z        PSCENC =         0.24381160
  Ewald energy   TEWEN  =       122.18749565
  -1/2 Hartree   DENC   =      -590.17911099
  -exchange  EXHF       =         0.00000000
  -V(xc)+E(xc)   XCENC  =        39.16375819
  PAW double counting   =       454.79982171     -457.15426643
  entropy T*S    EENTRO =         0.00032211
  eigenvalues    EBANDS =      -148.13126538
  atomic energy  EATOM  =       579.50485627
  ---------------------------------------------------
  free energy    TOTEN  =         0.43542272 eV

  energy without entropy =        0.43510061  energy(sigma->0) =        0.43531535


--------------------------------------------------------------------------------------------------------




----------------------------------------- Iteration    1(   3)  ---------------------------------------


     EDDAV:  cpu time    2.28: real time    2.29
       DOS:  cpu time    0.00: real time    0.00
    --------------------------------------------
      LOOP:  cpu time    2.29: real time    2.30

 eigenvalue-minimisations  :   252
 total energy-change (2. order) :-0.1415623E+02  (-0.1413200E+02)
 number of electron      10.0000000 magnetization       2.0000000
 augmentation part       10.0000000 magnetization       2.0000000

 DIPCOR: dipole corrections for dipol
 direction  3 min pos    86,
 dipolmoment           0.000000      0.000000     -0.000006 electrons x Angstroem
 Tr[quadrupol]         0.997626

 energy correction for charged system         0.000000 eV
 dipol+quadrupol energy correction           -0.000000 eV
 added-field ion interaction          0.000004 eV  (added to PSCEN)


 Free energy of the ion-electron system (eV)
  ---------------------------------------------------
  alpha Z        PSCENC =         0.24381160
  Ewald energy   TEWEN  =       122.18749565
  -1/2 Hartree   DENC   =      -590.17911099
  -exchange  EXHF       =         0.00000000
  -V(xc)+E(xc)   XCENC  =        39.16375819
  PAW double counting   =       454.79982171     -457.15426643
  entropy T*S    EENTRO =         0.00303249
  eigenvalues    EBANDS =      -162.29020575
  atomic energy  EATOM  =       579.50485627
  ---------------------------------------------------
  free energy    TOTEN  =       -13.72080727 eV

  energy without entropy =      -13.72383976  energy(sigma->0) =      -13.72181810


--------------------------------------------------------------------------------------------------------




----------------------------------------- Iteration    1(   4)  ---------------------------------------


     EDDAV:  cpu time    2.32: real time    2.42
       DOS:  cpu time    0.00: real time    0.00
    --------------------------------------------
      LOOP:  cpu time    2.33: real time    2.52

 eigenvalue-minimisations  :   258
 total energy-change (2. order) :-0.6758843E+00  (-0.6744556E+00)
 number of electron      10.0000000 magnetization       2.0000000
 augmentation part       10.0000000 magnetization       2.0000000

 DIPCOR: dipole corrections for dipol
 direction  3 min pos    86,
 dipolmoment           0.000000      0.000000     -0.000006 electrons x Angstroem
 Tr[quadrupol]         0.997626

 energy correction for charged system         0.000000 eV
 dipol+quadrupol energy correction           -0.000000 eV
 added-field ion interaction          0.000004 eV  (added to PSCEN)


 Free energy of the ion-electron system (eV)
  ---------------------------------------------------
  alpha Z        PSCENC =         0.24381160
  Ewald energy   TEWEN  =       122.18749565
  -1/2 Hartree   DENC   =      -590.17911099
  -exchange  EXHF       =         0.00000000
  -V(xc)+E(xc)   XCENC  =        39.16375819
  PAW double counting   =       454.79982171     -457.15426643
  entropy T*S    EENTRO =         0.00289895
  eigenvalues    EBANDS =      -162.96595653
  atomic energy  EATOM  =       579.50485627
  ---------------------------------------------------
  free energy    TOTEN  =       -14.39669159 eV

  energy without entropy =      -14.39959054  energy(sigma->0) =      -14.39765791


--------------------------------------------------------------------------------------------------------




----------------------------------------- Iteration    1(   5)  ---------------------------------------


     EDDAV:  cpu time    2.01: real time    2.01
       DOS:  cpu time    0.00: real time    0.00
    CHARGE:  cpu time    0.20: real time    0.20
    MIXING:  cpu time    0.02: real time    0.02
    --------------------------------------------
      LOOP:  cpu time    2.24: real time    2.25

 eigenvalue-minimisations  :   216
 total energy-change (2. order) :-0.1849370E-02  (-0.1849345E-02)
 number of electron       9.9999976 magnetization       1.5223393
 augmentation part        0.6962613 magnetization       1.5336433

 DIPCOR: dipole corrections for dipol
 direction  3 min pos    86,
 dipolmoment           0.000000      0.000000     -0.000006 electrons x Angstroem
 Tr[quadrupol]         0.997626

 energy correction for charged system         0.000000 eV
 dipol+quadrupol energy correction           -0.000000 eV
 added-field ion interaction          0.000004 eV  (added to PSCEN)


 Broyden mixing:
  rms(total) = 0.98539E+00    rms(broyden)= 0.98505E+00
  rms(prec ) = 0.10283E+01
  weight for this iteration     100.00

 Free energy of the ion-electron system (eV)
  ---------------------------------------------------
  alpha Z        PSCENC =         0.24381160
  Ewald energy   TEWEN  =       122.18749565
  -1/2 Hartree   DENC   =      -590.17911099
  -exchange  EXHF       =         0.00000000
  -V(xc)+E(xc)   XCENC  =        39.16375819
  PAW double counting   =       454.79982171     -457.15426643
  entropy T*S    EENTRO =         0.00289895
  eigenvalues    EBANDS =      -162.96780590
  atomic energy  EATOM  =       579.50485627
  ---------------------------------------------------
  free energy    TOTEN  =       -14.39854096 eV

  energy without entropy =      -14.40143991  energy(sigma->0) =      -14.39950728


--------------------------------------------------------------------------------------------------------




----------------------------------------- Iteration    1(   6)  ---------------------------------------


    POTLOK:  cpu time    1.20: real time    1.20
    SETDIJ:  cpu time    0.01: real time    0.01
     EDDAV:  cpu time    1.63: real time    1.63
       DOS:  cpu time    0.00: real time    0.00
    CHARGE:  cpu time    0.20: real time    0.20
    MIXING:  cpu time    0.02: real time    0.02
    --------------------------------------------
      LOOP:  cpu time    3.06: real time    3.06

 eigenvalue-minimisations  :   160
 total energy-change (2. order) : 0.5170438E+01  (-0.1055640E+01)
 number of electron       9.9999978 magnetization       1.2000040
 augmentation part        0.6069669 magnetization       1.1733622

 DIPCOR: dipole corrections for dipol
 direction  3 min pos    90,
 dipolmoment           0.000000      0.000000      0.023406 electrons x Angstroem
 Tr[quadrupol]         1.008909

 energy correction for charged system         0.000000 eV
 dipol+quadrupol energy correction           -0.000028 eV
 added-field ion interaction         -0.006840 eV  (added to PSCEN)


 Broyden mixing:
  rms(total) = 0.40042E+00    rms(broyden)= 0.40018E+00
  rms(prec ) = 0.43294E+00
  weight for this iteration     100.00

 eigenvalues of (default mixing * dielectric matrix)
  average eigenvalue GAMMA=   0.8893
  0.8893

 Free energy of the ion-electron system (eV)
  ---------------------------------------------------
  alpha Z        PSCENC =         0.23693966
  Ewald energy   TEWEN  =       122.18749565
  -1/2 Hartree   DENC   =      -602.80520787
  -exchange  EXHF       =         0.00000000
  -V(xc)+E(xc)   XCENC  =        44.01397522
  PAW double counting   =       562.36652905     -564.87961635
  entropy T*S    EENTRO =         0.00289978
  eigenvalues    EBANDS =      -149.85597418
  atomic energy  EATOM  =       579.50485627
  ---------------------------------------------------
  free energy    TOTEN  =        -9.22810278 eV

  energy without entropy =       -9.23100256  energy(sigma->0) =       -9.22906937


--------------------------------------------------------------------------------------------------------




----------------------------------------- Iteration    1(   7)  ---------------------------------------


    POTLOK:  cpu time    1.19: real time    1.19
    SETDIJ:  cpu time    0.01: real time    0.01
     EDDAV:  cpu time    1.67: real time    1.67
       DOS:  cpu time    0.00: real time    0.00
    CHARGE:  cpu time    0.18: real time    0.18
    MIXING:  cpu time    0.03: real time    0.03
    --------------------------------------------
      LOOP:  cpu time    3.08: real time    3.08

 eigenvalue-minimisations  :   170
 total energy-change (2. order) :-0.3076039E+01  (-0.2385807E+00)
 number of electron       9.9999977 magnetization       0.7874514
 augmentation part        0.6331273 magnetization       0.7671886

 DIPCOR: dipole corrections for dipol
 direction  3 min pos    93,
 dipolmoment           0.000000      0.000000      0.008639 electrons x Angstroem
 Tr[quadrupol]         0.994927

 energy correction for charged system         0.000000 eV
 dipol+quadrupol energy correction           -0.000004 eV
 added-field ion interaction         -0.000154 eV  (added to PSCEN)


 Broyden mixing:
  rms(total) = 0.19627E+00    rms(broyden)= 0.19625E+00
  rms(prec ) = 0.20825E+00
  weight for this iteration     100.00

 eigenvalues of (default mixing * dielectric matrix)
  average eigenvalue GAMMA=   1.0391
  0.8986  1.1796

 Free energy of the ion-electron system (eV)
  ---------------------------------------------------
  alpha Z        PSCENC =         0.24364952
  Ewald energy   TEWEN  =       122.18749565
  -1/2 Hartree   DENC   =      -604.43852150
  -exchange  EXHF       =         0.00000000
  -V(xc)+E(xc)   XCENC  =        41.59944079
  PAW double counting   =       624.67194720     -627.13139949
  entropy T*S    EENTRO =         0.00312243
  eigenvalues    EBANDS =      -148.94473247
  atomic energy  EATOM  =       579.50485627
  ---------------------------------------------------
  free energy    TOTEN  =       -12.30414160 eV

  energy without entropy =      -12.30726403  energy(sigma->0) =      -12.30518241


--------------------------------------------------------------------------------------------------------




----------------------------------------- Iteration    1(   8)  ---------------------------------------


    POTLOK:  cpu time    1.19: real time    1.19
    SETDIJ:  cpu time    0.01: real time    0.01
     EDDAV:  cpu time    1.87: real time    1.87
       DOS:  cpu time    0.00: real time    0.00
    CHARGE:  cpu time    0.18: real time    0.18
    MIXING:  cpu time    0.03: real time    0.03
    --------------------------------------------
      LOOP:  cpu time    3.28: real time    3.28

 eigenvalue-minimisations  :   196
 total energy-change (2. order) :-0.1433441E+01  (-0.8135365E-01)
 number of electron       9.9999978 magnetization       0.5487058
 augmentation part        0.6167923 magnetization       0.4813103

 DIPCOR: dipole corrections for dipol
 direction  3 min pos    95,
 dipolmoment           0.000000      0.000000      0.013654 electrons x Angstroem
 Tr[quadrupol]         0.991066

 energy correction for charged system         0.000000 eV
 dipol+quadrupol energy correction           -0.000010 eV
 added-field ion interaction          0.002254 eV  (added to PSCEN)


 Broyden mixing:
  rms(total) = 0.10446E+00    rms(broyden)= 0.10443E+00
  rms(prec ) = 0.10830E+00
  weight for this iteration     100.00

 eigenvalues of (default mixing * dielectric matrix)
  average eigenvalue GAMMA=   1.1285
  1.6378  1.0931  0.6544

 Free energy of the ion-electron system (eV)
  ---------------------------------------------------
  alpha Z        PSCENC =         0.24605188
  Ewald energy   TEWEN  =       122.18749565
  -1/2 Hartree   DENC   =      -608.08461558
  -exchange  EXHF       =         0.00000000
  -V(xc)+E(xc)   XCENC  =        40.61753824
  PAW double counting   =       691.16291693     -693.62386039
  entropy T*S    EENTRO =         0.00628425
  eigenvalues    EBANDS =      -145.75424991
  atomic energy  EATOM  =       579.50485627
  ---------------------------------------------------
  free energy    TOTEN  =       -13.73758267 eV

  energy without entropy =      -13.74386692  energy(sigma->0) =      -13.73967742


--------------------------------------------------------------------------------------------------------




----------------------------------------- Iteration    1(   9)  ---------------------------------------


    POTLOK:  cpu time    1.18: real time    1.19
    SETDIJ:  cpu time    0.01: real time    0.01
     EDDAV:  cpu time    1.64: real time    1.64
       DOS:  cpu time    0.00: real time    0.00
    CHARGE:  cpu time    0.18: real time    0.18
    MIXING:  cpu time    0.03: real time    0.03
    --------------------------------------------
      LOOP:  cpu time    3.05: real time    3.05

 eigenvalue-minimisations  :   164
 total energy-change (2. order) :-0.4144893E+00  (-0.1157646E-01)
 number of electron       9.9999978 magnetization       0.4145252
 augmentation part        0.6188490 magnetization       0.4112253

 DIPCOR: dipole corrections for dipol
 direction  3 min pos    96,
 dipolmoment           0.000000      0.000000      0.014461 electrons x Angstroem
 Tr[quadrupol]         0.996648

 energy correction for charged system         0.000000 eV
 dipol+quadrupol energy correction           -0.000011 eV
 added-field ion interaction          0.003710 eV  (added to PSCEN)


 Broyden mixing:
  rms(total) = 0.60005E-01    rms(broyden)= 0.59990E-01
  rms(prec ) = 0.61555E-01
  weight for this iteration     100.00

 eigenvalues of (default mixing * dielectric matrix)
  average eigenvalue GAMMA=   1.0928
  2.0807  0.9577  0.7759  0.5568

 Free energy of the ion-electron system (eV)
  ---------------------------------------------------
  alpha Z        PSCENC =         0.24750658
  Ewald energy   TEWEN  =       122.18749565
  -1/2 Hartree   DENC   =      -607.76330363
  -exchange  EXHF       =         0.00000000
  -V(xc)+E(xc)   XCENC  =        40.24229520
  PAW double counting   =       718.75958597     -721.19030697
  entropy T*S    EENTRO =         0.00302260
  eigenvalues    EBANDS =      -146.14322361
  atomic energy  EATOM  =       579.50485627
  ---------------------------------------------------
  free energy    TOTEN  =       -14.15207194 eV

  energy without entropy =      -14.15509455  energy(sigma->0) =      -14.15307948


--------------------------------------------------------------------------------------------------------




----------------------------------------- Iteration    1(  10)  ---------------------------------------


    POTLOK:  cpu time    1.22: real time    1.22
    SETDIJ:  cpu time    0.01: real time    0.01
     EDDAV:  cpu time    1.71: real time    1.71
       DOS:  cpu time    0.00: real time    0.00
    CHARGE:  cpu time    0.18: real time    0.18
    MIXING:  cpu time    0.03: real time    0.03
    --------------------------------------------
      LOOP:  cpu time    3.15: real time    3.15

 eigenvalue-minimisations  :   174
 total energy-change (2. order) :-0.4804244E-01  (-0.7441158E-03)
 number of electron       9.9999978 magnetization       0.2704396
 augmentation part        0.6199683 magnetization       0.2018129

 DIPCOR: dipole corrections for dipol
 direction  3 min pos    96,
 dipolmoment           0.000000      0.000000      0.014849 electrons x Angstroem
 Tr[quadrupol]         1.001409

 energy correction for charged system         0.000000 eV
 dipol+quadrupol energy correction           -0.000011 eV
 added-field ion interaction          0.003809 eV  (added to PSCEN)


 Broyden mixing:
  rms(total) = 0.36576E-01    rms(broyden)= 0.36567E-01
  rms(prec ) = 0.37916E-01
  weight for this iteration     100.00

 eigenvalues of (default mixing * dielectric matrix)
  average eigenvalue GAMMA=   1.1457
  2.3034  1.2218  1.0215  0.7078  0.4743

 Free energy of the ion-electron system (eV)
  ---------------------------------------------------
  alpha Z        PSCENC =         0.24760547
  Ewald energy   TEWEN  =       122.18749565
  -1/2 Hartree   DENC   =      -607.60408850
  -exchange  EXHF       =         0.00000000
  -V(xc)+E(xc)   XCENC  =        40.18616863
  PAW double counting   =       728.63347043     -731.05211731
  entropy T*S    EENTRO =         0.00645138
  eigenvalues    EBANDS =      -146.30995639
  atomic energy  EATOM  =       579.50485627
  ---------------------------------------------------
  free energy    TOTEN  =       -14.20011438 eV

  energy without entropy =      -14.20656576  energy(sigma->0) =      -14.20226484


--------------------------------------------------------------------------------------------------------




----------------------------------------- Iteration    1(  11)  ---------------------------------------


    POTLOK:  cpu time    1.28: real time    1.28
    SETDIJ:  cpu time    0.01: real time    0.01
     EDDAV:  cpu time    1.63: real time    1.63
       DOS:  cpu time    0.00: real time    0.00
    CHARGE:  cpu time    0.18: real time    0.18
    MIXING:  cpu time    0.03: real time    0.03
    --------------------------------------------
      LOOP:  cpu time    3.14: real time    3.14

 eigenvalue-minimisations  :   164
 total energy-change (2. order) :-0.1402660E+00  (-0.1259885E-02)
 number of electron       9.9999978 magnetization       0.2062460
 augmentation part        0.6194949 magnetization       0.1823306

 DIPCOR: dipole corrections for dipol
 direction  3 min pos    95,
 dipolmoment           0.000000      0.000000      0.015990 electrons x Angstroem
 Tr[quadrupol]         1.011484

 energy correction for charged system         0.000000 eV
 dipol+quadrupol energy correction           -0.000013 eV
 added-field ion interaction          0.002640 eV  (added to PSCEN)


 Broyden mixing:
  rms(total) = 0.16335E-01    rms(broyden)= 0.16328E-01
  rms(prec ) = 0.16907E-01
  weight for this iteration     100.00

 eigenvalues of (default mixing * dielectric matrix)
  average eigenvalue GAMMA=   1.1222
  2.4128  1.3640  1.0935  0.7811  0.6528  0.4291

 Free energy of the ion-electron system (eV)
  ---------------------------------------------------
  alpha Z        PSCENC =         0.24643398
  Ewald energy   TEWEN  =       122.18749565
  -1/2 Hartree   DENC   =      -607.24852471
  -exchange  EXHF       =         0.00000000
  -V(xc)+E(xc)   XCENC  =        40.03207394
  PAW double counting   =       734.16617743     -736.57261033
  entropy T*S    EENTRO =         0.00450529
  eigenvalues    EBANDS =      -146.66078790
  atomic energy  EATOM  =       579.50485627
  ---------------------------------------------------
  free energy    TOTEN  =       -14.34038038 eV

  energy without entropy =      -14.34488567  energy(sigma->0) =      -14.34188214


--------------------------------------------------------------------------------------------------------




----------------------------------------- Iteration    1(  12)  ---------------------------------------


    POTLOK:  cpu time    1.19: real time    1.19
    SETDIJ:  cpu time    0.01: real time    0.01
     EDDAV:  cpu time    1.69: real time    1.70
       DOS:  cpu time    0.00: real time    0.00
    CHARGE:  cpu time    0.18: real time    0.18
    MIXING:  cpu time    0.04: real time    0.04
    --------------------------------------------
      LOOP:  cpu time    3.12: real time    3.13

 eigenvalue-minimisations  :   174
 total energy-change (2. order) :-0.3582973E-01  (-0.1052627E-03)
 number of electron       9.9999978 magnetization       0.1255044
 augmentation part        0.6194101 magnetization       0.0706514

 DIPCOR: dipole corrections for dipol
 direction  3 min pos    94,
 dipolmoment           0.000000      0.000000      0.016126 electrons x Angstroem
 Tr[quadrupol]         1.019132

 energy correction for charged system         0.000000 eV
 dipol+quadrupol energy correction           -0.000013 eV
 added-field ion interaction          0.001187 eV  (added to PSCEN)


 Broyden mixing:
  rms(total) = 0.13344E-01    rms(broyden)= 0.13338E-01
  rms(prec ) = 0.13784E-01
  weight for this iteration     100.00

 eigenvalues of (default mixing * dielectric matrix)
  average eigenvalue GAMMA=   1.1709
  2.5124  1.8233  1.0647  1.0647  0.7260  0.6112  0.3943

 Free energy of the ion-electron system (eV)
  ---------------------------------------------------
  alpha Z        PSCENC =         0.24498134
  Ewald energy   TEWEN  =       122.18749565
  -1/2 Hartree   DENC   =      -607.18605388
  -exchange  EXHF       =         0.00000000
  -V(xc)+E(xc)   XCENC  =        39.99294252
  PAW double counting   =       734.28960661     -736.69401558
  entropy T*S    EENTRO =         0.00599246
  eigenvalues    EBANDS =      -146.72201549
  atomic energy  EATOM  =       579.50485627
  ---------------------------------------------------
  free energy    TOTEN  =       -14.37621011 eV

  energy without entropy =      -14.38220257  energy(sigma->0) =      -14.37820759


--------------------------------------------------------------------------------------------------------




----------------------------------------- Iteration    1(  13)  ---------------------------------------


    POTLOK:  cpu time    1.16: real time    1.16
    SETDIJ:  cpu time    0.01: real time    0.01
     EDDAV:  cpu time    1.72: real time    1.72
       DOS:  cpu time    0.00: real time    0.00
    CHARGE:  cpu time    0.18: real time    0.18
    MIXING:  cpu time    0.04: real time    0.04
    --------------------------------------------
      LOOP:  cpu time    3.11: real time    3.11

 eigenvalue-minimisations  :   172
 total energy-change (2. order) :-0.6682642E-01  (-0.4201042E-03)
 number of electron       9.9999978 magnetization       0.0660848
 augmentation part        0.6196307 magnetization       0.0334206

 DIPCOR: dipole corrections for dipol
 direction  3 min pos    93,
 dipolmoment           0.000000      0.000000      0.016367 electrons x Angstroem
 Tr[quadrupol]         1.030692

 energy correction for charged system         0.000000 eV
 dipol+quadrupol energy correction           -0.000014 eV
 added-field ion interaction         -0.000292 eV  (added to PSCEN)


 Broyden mixing:
  rms(total) = 0.74500E-02    rms(broyden)= 0.74467E-02
  rms(prec ) = 0.78047E-02
  weight for this iteration     100.00

 eigenvalues of (default mixing * dielectric matrix)
  average eigenvalue GAMMA=   1.2546
  2.8597  2.3322  1.1876  1.1876  0.8315  0.6754  0.5789  0.3837

 Free energy of the ion-electron system (eV)
  ---------------------------------------------------
  alpha Z        PSCENC =         0.24350177
  Ewald energy   TEWEN  =       122.18749565
  -1/2 Hartree   DENC   =      -607.05740679
  -exchange  EXHF       =         0.00000000
  -V(xc)+E(xc)   XCENC  =        39.92134604
  PAW double counting   =       733.09281832     -735.49505044
  entropy T*S    EENTRO =         0.00500654
  eigenvalues    EBANDS =      -146.84560388
  atomic energy  EATOM  =       579.50485627
  ---------------------------------------------------
  free energy    TOTEN  =       -14.44303653 eV

  energy without entropy =      -14.44804307  energy(sigma->0) =      -14.44470537


--------------------------------------------------------------------------------------------------------




----------------------------------------- Iteration    1(  14)  ---------------------------------------


    POTLOK:  cpu time    1.19: real time    1.19
    SETDIJ:  cpu time    0.01: real time    0.01
     EDDAV:  cpu time    1.65: real time    1.65
       DOS:  cpu time    0.00: real time    0.00
    CHARGE:  cpu time    0.19: real time    0.19
    MIXING:  cpu time    0.05: real time    0.05
    --------------------------------------------
      LOOP:  cpu time    3.09: real time    3.09

 eigenvalue-minimisations  :   166
 total energy-change (2. order) :-0.4091851E-01  (-0.9963764E-04)
 number of electron       9.9999978 magnetization       0.0487209
 augmentation part        0.6194836 magnetization       0.0091017

 DIPCOR: dipole corrections for dipol
 direction  3 min pos    93,
 dipolmoment           0.000000      0.000000      0.016771 electrons x Angstroem
 Tr[quadrupol]         1.039773

 energy correction for charged system         0.000000 eV
 dipol+quadrupol energy correction           -0.000014 eV
 added-field ion interaction         -0.000299 eV  (added to PSCEN)


 Broyden mixing:
  rms(total) = 0.21164E-02    rms(broyden)= 0.21146E-02
  rms(prec ) = 0.26065E-02
  weight for this iteration     100.00

 eigenvalues of (default mixing * dielectric matrix)
  average eigenvalue GAMMA=   1.3108
  3.5961  2.3955  1.4215  1.0651  0.9881  0.6907  0.6907  0.5645  0.3847

 Free energy of the ion-electron system (eV)
  ---------------------------------------------------
  alpha Z        PSCENC =         0.24349387
  Ewald energy   TEWEN  =       122.18749565
  -1/2 Hartree   DENC   =      -607.03913065
  -exchange  EXHF       =         0.00000000
  -V(xc)+E(xc)   XCENC  =        39.87980847
  PAW double counting   =       732.27008654     -734.67222590
  entropy T*S    EENTRO =         0.00536102
  eigenvalues    EBANDS =      -146.86370030
  atomic energy  EATOM  =       579.50485627
  ---------------------------------------------------
  free energy    TOTEN  =       -14.48395504 eV

  energy without entropy =      -14.48931605  energy(sigma->0) =      -14.48574204


--------------------------------------------------------------------------------------------------------




----------------------------------------- Iteration    1(  15)  ---------------------------------------


    POTLOK:  cpu time    1.21: real time    1.21
    SETDIJ:  cpu time    0.01: real time    0.01
     EDDAV:  cpu time    1.67: real time    1.67
       DOS:  cpu time    0.00: real time    0.00
    CHARGE:  cpu time    0.19: real time    0.19
    MIXING:  cpu time    0.05: real time    0.05
    --------------------------------------------
      LOOP:  cpu time    3.13: real time    3.14

 eigenvalue-minimisations  :   174
 total energy-change (2. order) :-0.7479208E-02  (-0.2658790E-04)
 number of electron       9.9999978 magnetization       0.0434708
 augmentation part        0.6193724 magnetization       0.0006677

 DIPCOR: dipole corrections for dipol
 direction  3 min pos    93,
 dipolmoment           0.000000      0.000000      0.017003 electrons x Angstroem
 Tr[quadrupol]         1.045467

 energy correction for charged system         0.000000 eV
 dipol+quadrupol energy correction           -0.000015 eV
 added-field ion interaction         -0.000303 eV  (added to PSCEN)


 Broyden mixing:
  rms(total) = 0.12801E-02    rms(broyden)= 0.12782E-02
  rms(prec ) = 0.17514E-02
  weight for this iteration     100.00

 eigenvalues of (default mixing * dielectric matrix)
  average eigenvalue GAMMA=   1.3066
  3.8327  2.3888  1.5069  1.1860  1.0062  0.8569  0.6610  0.6610  0.5811  0.3858

 Free energy of the ion-electron system (eV)
  ---------------------------------------------------
  alpha Z        PSCENC =         0.24348934
  Ewald energy   TEWEN  =       122.18749565
  -1/2 Hartree   DENC   =      -607.04568245
  -exchange  EXHF       =         0.00000000
  -V(xc)+E(xc)   XCENC  =        39.87291472
  PAW double counting   =       732.20223838     -734.60465045
  entropy T*S    EENTRO =         0.00551397
  eigenvalues    EBANDS =      -146.85760967
  atomic energy  EATOM  =       579.50485627
  ---------------------------------------------------
  free energy    TOTEN  =       -14.49143424 eV

  energy without entropy =      -14.49694821  energy(sigma->0) =      -14.49327223


--------------------------------------------------------------------------------------------------------




----------------------------------------- Iteration    1(  16)  ---------------------------------------


    POTLOK:  cpu time    1.20: real time    1.20
    SETDIJ:  cpu time    0.01: real time    0.01
     EDDAV:  cpu time    1.60: real time    1.60
       DOS:  cpu time    0.00: real time    0.00
    CHARGE:  cpu time    0.18: real time    0.18
    MIXING:  cpu time    0.05: real time    0.05
    --------------------------------------------
      LOOP:  cpu time    3.06: real time    3.06

 eigenvalue-minimisations  :   164
 total energy-change (2. order) :-0.1479743E-02  (-0.1011507E-04)
 number of electron       9.9999978 magnetization       0.0395810
 augmentation part        0.6193664 magnetization      -0.0014118

 DIPCOR: dipole corrections for dipol
 direction  3 min pos    93,
 dipolmoment           0.000000      0.000000      0.017224 electrons x Angstroem
 Tr[quadrupol]         1.051673

 energy correction for charged system         0.000000 eV
 dipol+quadrupol energy correction           -0.000015 eV
 added-field ion interaction         -0.000307 eV  (added to PSCEN)


 Broyden mixing:
  rms(total) = 0.53727E-03    rms(broyden)= 0.53693E-03
  rms(prec ) = 0.10776E-02
  weight for this iteration     100.00

 eigenvalues of (default mixing * dielectric matrix)
  average eigenvalue GAMMA=   1.3801
  4.0494  2.4261  2.1094  1.4621  1.0354  1.0354  0.7688  0.6849  0.6315  0.5924
  0.3858

 Free energy of the ion-electron system (eV)
  ---------------------------------------------------
  alpha Z        PSCENC =         0.24348500
  Ewald energy   TEWEN  =       122.18749565
  -1/2 Hartree   DENC   =      -607.04682870
  -exchange  EXHF       =         0.00000000
  -V(xc)+E(xc)   XCENC  =        39.87155787
  PAW double counting   =       732.25427757     -734.65689928
  entropy T*S    EENTRO =         0.00543357
  eigenvalues    EBANDS =      -146.85629192
  atomic energy  EATOM  =       579.50485627
  ---------------------------------------------------
  free energy    TOTEN  =       -14.49291399 eV

  energy without entropy =      -14.49834756  energy(sigma->0) =      -14.49472518


--------------------------------------------------------------------------------------------------------




----------------------------------------- Iteration    1(  17)  ---------------------------------------


    POTLOK:  cpu time    1.19: real time    1.19
    SETDIJ:  cpu time    0.01: real time    0.01
     EDDAV:  cpu time    1.70: real time    1.70
       DOS:  cpu time    0.00: real time    0.00
    --------------------------------------------
      LOOP:  cpu time    2.90: real time    2.91

 eigenvalue-minimisations  :   174
 total energy-change (2. order) :-0.5174047E-04  (-0.4230980E-05)
 number of electron       9.9999978 magnetization       0.0395810
 augmentation part        0.6193664 magnetization      -0.0014118

 DIPCOR: dipole corrections for dipol
 direction  3 min pos    92,
 dipolmoment           0.000000      0.000000      0.017661 electrons x Angstroem
 Tr[quadrupol]         1.064959

 energy correction for charged system         0.000000 eV
 dipol+quadrupol energy correction           -0.000016 eV
 added-field ion interaction         -0.001930 eV  (added to PSCEN)


 Free energy of the ion-electron system (eV)
  ---------------------------------------------------
  alpha Z        PSCENC =         0.24186111
  Ewald energy   TEWEN  =       122.18749565
  -1/2 Hartree   DENC   =      -607.04326999
  -exchange  EXHF       =         0.00000000
  -V(xc)+E(xc)   XCENC  =        39.87111300
  PAW double counting   =       732.30716141     -734.70990121
  entropy T*S    EENTRO =         0.00544720
  eigenvalues    EBANDS =      -146.85772918
  atomic energy  EATOM  =       579.50485627
  ---------------------------------------------------
  free energy    TOTEN  =       -14.49296573 eV

  energy without entropy =      -14.49841293  energy(sigma->0) =      -14.49478146


--------------------------------------------------------------------------------------------------------




 average (electrostatic) potential at core
  the test charge radii are     0.6991  0.7215
  (the norm of the test charge is              1.0000)
       1 -61.9714       2 -83.1491
 
 
 
 E-fermi :  -9.0206     XC(G=0):  -0.4045     alpha+bet : -0.0979


 spin component 1

 k-point   1 :       0.0000    0.0000    0.2500
  band No.  band energies     occupation 
      1     -28.1184      1.00000
      2     -14.0638      1.00000
      3     -11.0669      1.00000
      4     -11.0669      1.00000
      5      -9.1834      1.02178
      6      -2.7962      0.00000
      7      -2.7960      0.00000
      8      -0.0988      0.00000
      9       0.2639      0.00000
     10       0.8459      0.00000

 k-point   2 :       0.3333    0.0000    0.2500
  band No.  band energies     occupation 
      1     -28.1184      1.00000
      2     -14.0638      1.00000
      3     -11.0669      1.00000
      4     -11.0668      1.00000
      5      -9.1834      1.02178
      6      -2.7967      0.00000
      7      -2.7961      0.00000
      8       0.0596      0.00000
      9       0.4124      0.00000
     10       0.5562      0.00000

 k-point   3 :       0.0000    0.3333    0.2500
  band No.  band energies     occupation 
      1     -28.1184      1.00000
      2     -14.0638      1.00000
      3     -11.0669      1.00000
      4     -11.0668      1.00000
      5      -9.1834      1.02178
      6      -2.7963      0.00000
      7      -2.7960      0.00000
      8       0.0158      0.00000
      9       0.3525      0.00000
     10       0.4267      0.00000

 k-point   4 :       0.3333    0.3333    0.2500
  band No.  band energies     occupation 
      1     -28.1184      1.00000
      2     -14.0638      1.00000
      3     -11.0669      1.00000
      4     -11.0668      1.00000
      5      -9.1834      1.02178
      6      -2.7967      0.00000
      7      -2.7962      0.00000
      8       0.1727      0.00000
      9       0.4898      0.00000
     10       0.6082      0.00000

 spin component 2

 k-point   1 :       0.0000    0.0000    0.2500
  band No.  band energies     occupation 
      1     -28.1050      1.00000
      2     -14.0351      1.00000
      3     -11.0601      1.00000
      4     -11.0601      1.00000
      5      -9.0963      0.97823
      6      -2.7646      0.00000
      7      -2.7643      0.00000
      8      -0.2746      0.00000
      9       0.2115      0.00000
     10       0.7547      0.00000

 k-point   2 :       0.3333    0.0000    0.2500
  band No.  band energies     occupation 
      1     -28.1050      1.00000
      2     -14.0351      1.00000
      3     -11.0601      1.00000
      4     -11.0601      1.00000
      5      -9.0963      0.97821
      6      -2.7652      0.00000
      7      -2.7646      0.00000
      8      -0.1136      0.00000
      9       0.3477      0.00000
     10       0.4013      0.00000

 k-point   3 :       0.0000    0.3333    0.2500
  band No.  band energies     occupation 
      1     -28.1050      1.00000
      2     -14.0351      1.00000
      3     -11.0601      1.00000
      4     -11.0601      1.00000
      5      -9.0963      0.97823
      6      -2.7649      0.00000
      7      -2.7643      0.00000
      8      -0.1566      0.00000
      9       0.2077      0.00000
     10       0.3442      0.00000

 k-point   4 :       0.3333    0.3333    0.2500
  band No.  band energies     occupation 
      1     -28.1050      1.00000
      2     -14.0351      1.00000
      3     -11.0601      1.00000
      4     -11.0601      1.00000
      5      -9.0963      0.97821
      6      -2.7652      0.00000
      7      -2.7648      0.00000
      8       0.0044      0.00000
      9       0.3644      0.00000
     10       0.4894      0.00000


--------------------------------------------------------------------------------------------------------


 soft charge-density along one line, spin component           1
         0         1         2         3         4         5         6         7         8         9
 total charge-density along one line
 
 soft charge-density along one line, spin component           2
         0         1         2         3         4         5         6         7         8         9
 total charge-density along one line
 
 pseudopotential strength for first ion, spin component:           1
 10.424  13.867   0.000   0.020  -0.000  -0.000  -0.063   0.000
 13.867  18.448   0.000   0.026  -0.000  -0.000  -0.083   0.000
  0.000   0.000  -4.571  -0.000  -0.000   8.955   0.000   0.000
  0.020   0.026  -0.000  -4.566  -0.000   0.000   8.938   0.000
 -0.000  -0.000  -0.000  -0.000  -4.571   0.000   0.000   8.955
 -0.000  -0.000   8.955   0.000   0.000 -19.697  -0.000  -0.000
 -0.063  -0.083   0.000   8.938   0.000  -0.000 -19.642  -0.000
  0.000   0.000   0.000   0.000   8.955  -0.000  -0.000 -19.696
 pseudopotential strength for first ion, spin component:           2
 10.419  13.861   0.000   0.021   0.000  -0.000  -0.068  -0.000
 13.861  18.439   0.000   0.028   0.000  -0.000  -0.089  -0.000
  0.000   0.000  -4.570   0.000  -0.000   8.957  -0.000   0.000
  0.021   0.028   0.000  -4.564   0.000  -0.000   8.935  -0.000
  0.000   0.000  -0.000   0.000  -4.570   0.000  -0.000   8.957
 -0.000  -0.000   8.957  -0.000   0.000 -19.704   0.000  -0.000
 -0.068  -0.089  -0.000   8.935  -0.000   0.000 -19.642   0.000
 -0.000  -0.000   0.000  -0.000   8.957  -0.000   0.000 -19.703
 total augmentation occupancy for first ion, spin component:           1
  5.757  -2.389   0.000   1.577   0.000   0.000   0.287   0.000
 -2.389   1.393   0.000  -1.287   0.000   0.000  -0.175   0.000
  0.000   0.000   0.729   0.000   0.000   0.046   0.000   0.000
  1.577  -1.287   0.000   1.955   0.000   0.000   0.172   0.000
  0.000   0.000   0.000   0.000   0.729   0.000   0.000   0.046
  0.000   0.000   0.046   0.000   0.000   0.003   0.000   0.000
  0.287  -0.175   0.000   0.172   0.000   0.000   0.022   0.000
  0.000   0.000   0.000   0.000   0.046   0.000   0.000   0.003
 total augmentation occupancy for first ion, spin component:           2
  0.018  -0.005   0.000  -0.009   0.000   0.000  -0.000   0.000
 -0.005   0.006   0.000  -0.009   0.000   0.000  -0.001   0.000
  0.000   0.000   0.002   0.000   0.000   0.000   0.000   0.000
 -0.009  -0.009   0.000   0.029   0.000   0.000   0.001   0.000
  0.000   0.000   0.000   0.000   0.002   0.000   0.000   0.000
  0.000   0.000   0.000   0.000   0.000   0.000   0.000   0.000
 -0.000  -0.001   0.000   0.001   0.000   0.000   0.000   0.000
  0.000   0.000   0.000   0.000   0.000   0.000   0.000   0.000


------------------------ aborting loop because EDIFF is reached ----------------------------------------


    CHARGE:  cpu time    0.18: real time    0.18
    FORLOC:  cpu time    0.03: real time    0.03
    FORNL :  cpu time    0.41: real time    0.41
    STRESS:  cpu time    1.51: real time    1.51
    FORCOR:  cpu time    1.14: real time    1.14
    FORHAR:  cpu time    0.12: real time    0.12
    MIXING:  cpu time    0.04: real time    0.04

  FORCE on cell =-STRESS in cart. coord.  units (eV):
  Direction    XX          YY          ZZ          XY          YZ          ZX
  --------------------------------------------------------------------------------------
  Alpha Z     0.24381     0.24381     0.24381
  Ewald     -22.28311   -47.08974   191.56037     0.00000     0.00000     0.00000
  Hartree   196.91283   172.76139   237.39265    -0.00000    -0.00000    -0.00000
  E(xc)     -43.41981   -43.41982   -42.33317     0.00000     0.00000     0.00000
  Local    -308.04123  -259.08361  -544.72770    -0.00000    -0.00000    -0.00000
  n-local   -17.22029   -17.25351   -27.39806    -0.00010    -0.00001     0.00004
  augment     6.14479     6.14555     5.97536     0.00000     0.00000     0.00000
  Kinetic   187.69074   187.69154   171.21901     0.00001     0.00000     0.00000
  Fock        0.00000     0.00000     0.00000     0.00000     0.00000     0.00000
  -------------------------------------------------------------------------------------
  Total       0.02772    -0.00439    -8.06773     0.00000     0.00000     0.00000
  in kB       0.02478    -0.00392    -7.21223     0.00000     0.00000     0.00000
  external pressure =       -2.40 kB  Pullay stress =        0.00 kB


 VOLUME and BASIS-vectors are now :
 -----------------------------------------------------------------------------
  energy-cutoff  :      500.00
  volume of cell :     1792.22
      direct lattice vectors                 reciprocal lattice vectors
    10.160000000  0.000000000  0.000000000     0.098425197  0.000000000  0.000000000
     0.000000000 11.760000000  0.000000000     0.000000000  0.085034014  0.000000000
     0.000000000  0.000000000 15.000000000     0.000000000  0.000000000  0.066666667

  length of vectors
    10.160000000 11.760000000 15.000000000     0.098425197  0.085034014  0.066666667


 FORCES acting on ions
    electron-ion (+dipol)            ewald-force                    non-local-force                 convergence-correction
 -----------------------------------------------------------------------------------------------
   -.256E-14 0.290E-12 0.211E+03   -.990E-16 0.182E-16 -.232E+03   0.000E+00 0.000E+00 0.278E+02   -.209E-15 -.214E-13 -.192E-02
   -.105E-14 -.870E-13 -.185E+03   0.116E-15 0.102E-16 0.232E+03   0.000E+00 0.000E+00 -.542E+02   0.441E-14 -.409E-13 -.128E-02
 -----------------------------------------------------------------------------------------------
   -.361E-14 0.203E-12 0.264E+02   0.172E-16 0.285E-16 0.000E+00   0.000E+00 0.000E+00 -.264E+02   0.420E-14 -.624E-13 -.320E-02
 
 
 POSITION                                       TOTAL-FORCE (eV/Angst)
 -----------------------------------------------------------------------------------
      0.00000      0.00000      0.00000         0.000000      0.000000      6.635713
      0.00000      0.00000      1.21950         0.000000      0.000000     -6.635713
 -----------------------------------------------------------------------------------
    total drift:                                0.000000      0.000000     -0.041078


--------------------------------------------------------------------------------------------------------



  FREE ENERGIE OF THE ION-ELECTRON SYSTEM (eV)
  ---------------------------------------------------
  free  energy   TOTEN  =       -14.49296573 eV

  energy  without entropy=      -14.49841293  energy(sigma->0) =      -14.49478146
 


--------------------------------------------------------------------------------------------------------


    POTLOK:  cpu time    1.21: real time    1.21


--------------------------------------------------------------------------------------------------------




--------------------------------------------------------------------------------------------------------


    WAVPRE:  cpu time    0.14: real time    0.14
 FEWALD executed in parallel
    FEWALD:  cpu time    0.00: real time    0.00

 real space projection operators:
  total allocation   :         87.62 KBytes
  max/ min on nodes  :         23.00         20.38

    ORTHCH:  cpu time    0.16: real time    0.16
     LOOP+:  cpu time   54.62: real time   54.89


----------------------------------------- Iteration    2(   1)  ---------------------------------------


    POTLOK:  cpu time    1.20: real time    1.20
    SETDIJ:  cpu time    0.01: real time    0.01
     EDDAV:  cpu time    1.62: real time    1.62
       DOS:  cpu time    0.00: real time    0.00
    CHARGE:  cpu time    0.19: real time    0.19
    MIXING:  cpu time    0.03: real time    0.03
    --------------------------------------------
      LOOP:  cpu time    3.04: real time    3.04

 eigenvalue-minimisations  :   162
 total energy-change (2. order) : 0.8531794E+02  (-0.1235624E+03)
 number of electron      10.0000018 magnetization       0.0379510
 augmentation part        1.2820254 magnetization       0.0080076

 DIPCOR: dipole corrections for dipol
 direction  3 min pos    92,
 dipolmoment           0.000000      0.000000      0.017942 electrons x Angstroem
 Tr[quadrupol]         1.071787

 energy correction for charged system         0.000000 eV
 dipol+quadrupol energy correction           -0.000016 eV
 added-field ion interaction         -0.000784 eV  (added to PSCEN)


 Broyden mixing:
  rms(total) = 0.12569E+02    rms(broyden)= 0.12568E+02
  rms(prec ) = 0.12589E+02
  weight for this iteration     100.00

 Free energy of the ion-electron system (eV)
  ---------------------------------------------------
  alpha Z        PSCENC =         0.24300661
  Ewald energy   TEWEN  =       435.39599607
  -1/2 Hartree   DENC   =      -710.07776308
  -exchange  EXHF       =         0.00000000
  -V(xc)+E(xc)   XCENC  =        43.24660680
  PAW double counting   =       732.32541628     -734.72812599
  entropy T*S    EENTRO =         0.00488756
  eigenvalues    EBANDS =      -275.08985931
  atomic energy  EATOM  =       579.50485627
  ---------------------------------------------------
  free energy    TOTEN  =        70.82502120 eV

  energy without entropy =       70.82013364  energy(sigma->0) =       70.82339201


--------------------------------------------------------------------------------------------------------




----------------------------------------- Iteration    2(   2)  ---------------------------------------


    POTLOK:  cpu time    1.09: real time    1.09
    SETDIJ:  cpu time    0.01: real time    0.01
     EDDAV:  cpu time    1.90: real time    1.90
       DOS:  cpu time    0.00: real time    0.00
    CHARGE:  cpu time    0.18: real time    0.18
    MIXING:  cpu time    0.03: real time    0.03
    --------------------------------------------
      LOOP:  cpu time    3.21: real time    3.21

 eigenvalue-minimisations  :   208
 total energy-change (2. order) : 0.3996773E+01  (-0.4278783E+01)
 number of electron      10.0000016 magnetization       0.0388749
 augmentation part        1.2525811 magnetization       0.0025393

 DIPCOR: dipole corrections for dipol
 direction  3 min pos    89,
 dipolmoment           0.000000      0.000000     -0.008268 electrons x Angstroem
 Tr[quadrupol]         1.077061

 energy correction for charged system         0.000000 eV
 dipol+quadrupol energy correction           -0.000004 eV
 added-field ion interaction          0.002630 eV  (added to PSCEN)


 Broyden mixing:
  rms(total) = 0.11509E+02    rms(broyden)= 0.11509E+02
  rms(prec ) = 0.11519E+02
  weight for this iteration     100.00

 eigenvalues of (default mixing * dielectric matrix)
  average eigenvalue GAMMA=   7.7916
  7.7916

 Free energy of the ion-electron system (eV)
  ---------------------------------------------------
  alpha Z        PSCENC =         0.24643411
  Ewald energy   TEWEN  =       435.39599607
  -1/2 Hartree   DENC   =      -751.94319199
  -exchange  EXHF       =         0.00000000
  -V(xc)+E(xc)   XCENC  =        45.39072539
  PAW double counting   =      8956.05552384    -8960.24516106
  entropy T*S    EENTRO =         0.00521902
  eigenvalues    EBANDS =      -229.58860744
  atomic energy  EATOM  =       579.50485627
  ---------------------------------------------------
  free energy    TOTEN  =        74.82179421 eV

  energy without entropy =       74.81657519  energy(sigma->0) =       74.82005454


--------------------------------------------------------------------------------------------------------




----------------------------------------- Iteration    2(   3)  ---------------------------------------


    POTLOK:  cpu time    1.19: real time    1.19
    SETDIJ:  cpu time    0.01: real time    0.01
     EDDAV:  cpu time    1.58: real time    1.66
       DOS:  cpu time    0.00: real time    0.00
    CHARGE:  cpu time    0.25: real time    0.25
    MIXING:  cpu time    0.03: real time    0.03
    --------------------------------------------
      LOOP:  cpu time    3.06: real time    3.14

 eigenvalue-minimisations  :   160
 total energy-change (2. order) :-0.7115066E+02  (-0.6007148E+02)
 number of electron       9.9999981 magnetization       0.0342703
 augmentation part        0.2917983 magnetization       0.0711985

 DIPCOR: dipole corrections for dipol
 direction  3 min pos    93,
 dipolmoment           0.000000      0.000000     -0.173735 electrons x Angstroem
 Tr[quadrupol]         0.883783

 energy correction for charged system         0.000000 eV
 dipol+quadrupol energy correction           -0.001546 eV
 added-field ion interaction         -0.008295 eV  (added to PSCEN)


 Broyden mixing:
  rms(total) = 0.38884E+02    rms(broyden)= 0.38884E+02
  rms(prec ) = 0.39009E+02
  weight for this iteration     100.00

 eigenvalues of (default mixing * dielectric matrix)
  average eigenvalue GAMMA=   1.3256
  1.3256  1.3256

 Free energy of the ion-electron system (eV)
  ---------------------------------------------------
  alpha Z        PSCENC =         0.23396636
  Ewald energy   TEWEN  =       435.39599607
  -1/2 Hartree   DENC   =     -1018.27875060
  -exchange  EXHF       =         0.00000000
  -V(xc)+E(xc)   XCENC  =        59.84489402
  PAW double counting   =    375225.81047930  -375239.22665312
  entropy T*S    EENTRO =         0.00388974
  eigenvalues    EBANDS =       -39.61754505
  atomic energy  EATOM  =       579.50485627
  ---------------------------------------------------
  free energy    TOTEN  =         3.67113300 eV

  energy without entropy =        3.66724326  energy(sigma->0) =        3.66983642


--------------------------------------------------------------------------------------------------------




----------------------------------------- Iteration    2(   4)  ---------------------------------------


    POTLOK:  cpu time    1.15: real time    1.15
    SETDIJ:  cpu time    0.01: real time    0.01
     EDDAV:  cpu time    2.57: real time    2.57
       DOS:  cpu time    0.00: real time    0.00
    CHARGE:  cpu time    0.18: real time    0.18
    MIXING:  cpu time    0.03: real time    0.03
[...]
  E(xc)     -43.99624   -43.99624   -42.88816    -0.00000     0.00000     0.00000
  Local    -315.52736  -266.46075  -559.99130     0.00000     0.00000     0.00000
  n-local   -18.23752   -18.24289   -29.68917    -0.00009    -0.00002     0.00006
  augment     6.24163     6.24216     5.75107     0.00000     0.00000     0.00000
  Kinetic   190.66039   190.66071   175.01348    -0.00002    -0.00001     0.00002
  Fock        0.00000     0.00000     0.00000     0.00000     0.00000     0.00000
  -------------------------------------------------------------------------------------
  Total      -0.02550    -0.03072    -0.09312     0.00000     0.00000     0.00000
  in kB      -0.02280    -0.02746    -0.08324     0.00000     0.00000     0.00000
  external pressure =       -0.04 kB  Pullay stress =        0.00 kB


 VOLUME and BASIS-vectors are now :
 -----------------------------------------------------------------------------
  energy-cutoff  :      500.00
  volume of cell :     1792.22
      direct lattice vectors                 reciprocal lattice vectors
    10.160000000  0.000000000  0.000000000     0.098425197  0.000000000  0.000000000
     0.000000000 11.760000000  0.000000000     0.000000000  0.085034014  0.000000000
     0.000000000  0.000000000 15.000000000     0.000000000  0.000000000  0.066666667

  length of vectors
    10.160000000 11.760000000 15.000000000     0.098425197  0.085034014  0.066666667


 FORCES acting on ions
    electron-ion (+dipol)            ewald-force                    non-local-force                 convergence-correction
 -----------------------------------------------------------------------------------------------
   0.117E-14 -.203E-13 0.236E+03   -.632E-16 0.376E-16 -.264E+03   0.000E+00 0.000E+00 0.281E+02   -.164E-13 -.364E-13 0.330E-02
   0.107E-14 0.166E-12 -.205E+03   0.804E-16 -.917E-17 0.264E+03   0.000E+00 0.000E+00 -.593E+02   -.337E-13 -.605E-13 0.109E-01
 -----------------------------------------------------------------------------------------------
   0.224E-14 0.145E-12 0.312E+02   0.172E-16 0.285E-16 0.000E+00   0.000E+00 0.000E+00 -.313E+02   -.500E-13 -.969E-13 0.142E-01
 
 
 POSITION                                       TOTAL-FORCE (eV/Angst)
 -----------------------------------------------------------------------------------
      0.00000      0.00000      0.03815         0.000000      0.000000     -0.011650
      0.00000      0.00000      1.18135         0.000000      0.000000      0.011650
 -----------------------------------------------------------------------------------
    total drift:                               -0.000000      0.000000     -0.032627


--------------------------------------------------------------------------------------------------------



  FREE ENERGIE OF THE ION-ELECTRON SYSTEM (eV)
  ---------------------------------------------------
  free  energy   TOTEN  =       -14.77072027 eV

  energy  without entropy=      -14.77624393  energy(sigma->0) =      -14.77256149
 
 d Force = 0.2040424E-05[ 0.149E-05, 0.259E-05]  d Energy = 0.1963041E-04-0.176E-04
 d Force = 0.3372416E-01[ 0.337E-01, 0.337E-01]  d Ewald  = 0.3372416E-01 0.178E-09


--------------------------------------------------------------------------------------------------------


    POTLOK:  cpu time    1.12: real time    1.12


--------------------------------------------------------------------------------------------------------




--------------------------------------------------------------------------------------------------------


    WAVPRE:  cpu time    0.14: real time    0.14
 FEWALD executed in parallel
    FEWALD:  cpu time    0.00: real time    0.00

 real space projection operators:
  total allocation   :         86.38 KBytes
  max/ min on nodes  :         22.88         20.00

    ORTHCH:  cpu time    0.17: real time    0.17
     LOOP+:  cpu time   10.70: real time   10.72


----------------------------------------- Iteration   10(   1)  ---------------------------------------


    POTLOK:  cpu time    1.10: real time    1.10
    SETDIJ:  cpu time    0.01: real time    0.01
     EDDAV:  cpu time    1.63: real time    1.63
       DOS:  cpu time    0.00: real time    0.00
    CHARGE:  cpu time    0.19: real time    0.19
    MIXING:  cpu time    0.02: real time    0.02
    --------------------------------------------
      LOOP:  cpu time    2.95: real time    2.96

 eigenvalue-minimisations  :   170
 total energy-change (2. order) :-0.2076481E-04  (-0.5564919E-05)
 number of electron       9.9999998 magnetization      -0.0418798
 augmentation part        0.6566495 magnetization      -0.0018040

 DIPCOR: dipole corrections for dipol
 direction  3 min pos    93,
 dipolmoment           0.000000      0.000000     -0.024080 electrons x Angstroem
 Tr[quadrupol]         1.099483

 energy correction for charged system         0.000000 eV
 dipol+quadrupol energy correction           -0.000030 eV
 added-field ion interaction          0.000242 eV  (added to PSCEN)


 Broyden mixing:
  rms(total) = 0.33148E-03    rms(broyden)= 0.32820E-03
  rms(prec ) = 0.44538E-03
  weight for this iteration     100.00

 Free energy of the ion-electron system (eV)
  ---------------------------------------------------
  alpha Z        PSCENC =         0.24401942
  Ewald energy   TEWEN  =       141.06194981
  -1/2 Hartree   DENC   =      -622.45606540
  -exchange  EXHF       =         0.00000000
  -V(xc)+E(xc)   XCENC  =        40.41906375
  PAW double counting   =       844.46474973     -846.95816402
  entropy T*S    EENTRO =         0.00536565
  eigenvalues    EBANDS =      -151.05651278
  atomic energy  EATOM  =       579.50485627
  ---------------------------------------------------
  free energy    TOTEN  =       -14.77073758 eV

  energy without entropy =      -14.77610324  energy(sigma->0) =      -14.77252613


--------------------------------------------------------------------------------------------------------




----------------------------------------- Iteration   10(   2)  ---------------------------------------


    POTLOK:  cpu time    1.14: real time    1.14
    SETDIJ:  cpu time    0.01: real time    0.01
     EDDAV:  cpu time    1.60: real time    1.60
       DOS:  cpu time    0.00: real time    0.00
    --------------------------------------------
      LOOP:  cpu time    2.75: real time    2.75

 eigenvalue-minimisations  :   174
 total energy-change (2. order) :-0.1276642E-04  (-0.1634904E-06)
 number of electron       9.9999998 magnetization      -0.0418798
 augmentation part        0.6566495 magnetization      -0.0018040

 DIPCOR: dipole corrections for dipol
 direction  3 min pos    93,
 dipolmoment           0.000000      0.000000     -0.024764 electrons x Angstroem
 Tr[quadrupol]         1.099756

 energy correction for charged system         0.000000 eV
 dipol+quadrupol energy correction           -0.000031 eV
 added-field ion interaction          0.000249 eV  (added to PSCEN)


 Free energy of the ion-electron system (eV)
  ---------------------------------------------------
  alpha Z        PSCENC =         0.24402457
  Ewald energy   TEWEN  =       141.06194981
  -1/2 Hartree   DENC   =      -622.45227552
  -exchange  EXHF       =         0.00000000
  -V(xc)+E(xc)   XCENC  =        40.41880795
  PAW double counting   =       844.52054648     -847.01396634
  entropy T*S    EENTRO =         0.00539088
  eigenvalues    EBANDS =      -151.06008444
  atomic energy  EATOM  =       579.50485627
  ---------------------------------------------------
  free energy    TOTEN  =       -14.77075035 eV

  energy without entropy =      -14.77614123  energy(sigma->0) =      -14.77254731


--------------------------------------------------------------------------------------------------------




 average (electrostatic) potential at core
  the test charge radii are     0.6991  0.7215
  (the norm of the test charge is              1.0000)
       1 -61.6329       2 -83.4484
 
 
 
 E-fermi :  -8.8652     XC(G=0):  -0.4228     alpha+bet : -0.0977


 spin component 1

 k-point   1 :       0.0000    0.0000    0.2500
  band No.  band energies     occupation 
      1     -29.1887      1.00000
      2     -13.9733      1.00000
      3     -11.6800      1.00000
      4     -11.6799      1.00000
      5      -8.9411      0.97887
      6      -2.0807      0.00000
      7      -2.0798      0.00000
      8      -0.2094      0.00000
      9       0.2237      0.00000
     10       0.7889      0.00000

 k-point   2 :       0.3333    0.0000    0.2500
  band No.  band energies     occupation 
      1     -29.1887      1.00000
      2     -13.9733      1.00000
      3     -11.6800      1.00000
      4     -11.6799      1.00000
      5      -8.9411      0.97885
      6      -2.0815      0.00000
      7      -2.0805      0.00000
      8      -0.0550      0.00000
      9       0.3751      0.00000
     10       0.4582      0.00000

 k-point   3 :       0.0000    0.3333    0.2500
  band No.  band energies     occupation 
      1     -29.1887      1.00000
      2     -13.9733      1.00000
      3     -11.6800      1.00000
      4     -11.6799      1.00000
      5      -8.9411      0.97888
      6      -2.0811      0.00000
      7      -2.0797      0.00000
      8      -0.1034      0.00000
      9       0.2926      0.00000
     10       0.3612      0.00000

 k-point   4 :       0.3333    0.3333    0.2500
  band No.  band energies     occupation 
      1     -29.1887      1.00000
      2     -13.9733      1.00000
      3     -11.6800      1.00000
      4     -11.6799      1.00000
      5      -8.9411      0.97885
      6      -2.0814      0.00000
      7      -2.0809      0.00000
      8       0.0497      0.00000
      9       0.4429      0.00000
     10       0.5143      0.00000

 spin component 2

 k-point   1 :       0.0000    0.0000    0.2500
  band No.  band energies     occupation 
      1     -29.1993      1.00000
      2     -13.9938      1.00000
      3     -11.6864      1.00000
      4     -11.6863      1.00000
      5      -9.0294      1.02114
      6      -2.1152      0.00000
      7      -2.1143      0.00000
      8      -0.2133      0.00000
      9       0.2258      0.00000
     10       0.7908      0.00000

 k-point   2 :       0.3333    0.0000    0.2500
  band No.  band energies     occupation 
      1     -29.1993      1.00000
      2     -13.9938      1.00000
      3     -11.6864      1.00000
      4     -11.6863      1.00000
      5      -9.0294      1.02114
      6      -2.1160      0.00000
      7      -2.1150      0.00000
      8      -0.0592      0.00000
      9       0.3768      0.00000
     10       0.4552      0.00000

 k-point   3 :       0.0000    0.3333    0.2500
  band No.  band energies     occupation 
      1     -29.1993      1.00000
      2     -13.9938      1.00000
      3     -11.6864      1.00000
      4     -11.6863      1.00000
      5      -9.0294      1.02114
      6      -2.1156      0.00000
      7      -2.1143      0.00000
      8      -0.1079      0.00000
      9       0.2931      0.00000
     10       0.3600      0.00000

 k-point   4 :       0.3333    0.3333    0.2500
  band No.  band energies     occupation 
      1     -29.1993      1.00000
      2     -13.9938      1.00000
      3     -11.6864      1.00000
      4     -11.6863      1.00000
      5      -9.0294      1.02114
      6      -2.1159      0.00000
      7      -2.1154      0.00000
      8       0.0450      0.00000
      9       0.4432      0.00000
     10       0.5128      0.00000


--------------------------------------------------------------------------------------------------------


 soft charge-density along one line, spin component           1
         0         1         2         3         4         5         6         7         8         9
 total charge-density along one line
 
 soft charge-density along one line, spin component           2
         0         1         2         3         4         5         6         7         8         9
 total charge-density along one line
 
 pseudopotential strength for first ion, spin component:           1
 10.410  13.849   0.000   0.026   0.000  -0.000  -0.086  -0.000
 13.849  18.422   0.000   0.034   0.000  -0.000  -0.113  -0.000
  0.000   0.000  -4.542   0.000   0.000   8.894  -0.000  -0.000
  0.026   0.034   0.000  -4.549  -0.000  -0.000   8.895   0.000
  0.000   0.000   0.000  -0.000  -4.542  -0.000   0.000   8.894
 -0.000  -0.000   8.894  -0.000  -0.000 -19.564   0.000   0.000
 -0.086  -0.113  -0.000   8.895   0.000   0.000 -19.542  -0.000
 -0.000  -0.000  -0.000   0.000   8.894   0.000  -0.000 -19.564
 pseudopotential strength for first ion, spin component:           2
 10.415  13.855   0.000   0.025   0.000  -0.000  -0.081  -0.000
 13.855  18.431   0.000   0.033   0.000  -0.000  -0.107  -0.000
  0.000   0.000  -4.542   0.000   0.000   8.893  -0.000  -0.000
  0.025   0.033   0.000  -4.551  -0.000  -0.000   8.898   0.000
  0.000   0.000   0.000  -0.000  -4.542  -0.000   0.000   8.893
 -0.000  -0.000   8.893  -0.000  -0.000 -19.558   0.000   0.000
 -0.081  -0.107  -0.000   8.898   0.000   0.000 -19.543  -0.000
 -0.000  -0.000  -0.000   0.000   8.893   0.000  -0.000 -19.558
 total augmentation occupancy for first ion, spin component:           1
  7.453  -3.388   0.000   2.098   0.000   0.000   0.380   0.000
 -3.388   1.933   0.000  -1.602   0.000   0.000  -0.231   0.000
  0.000   0.000   0.819   0.000   0.000   0.059   0.000   0.000
  2.098  -1.602   0.000   2.217   0.000   0.000   0.206   0.000
  0.000   0.000   0.000   0.000   0.819   0.000   0.000   0.059
  0.000   0.000   0.059   0.000   0.000   0.004   0.000   0.000
  0.380  -0.231   0.000   0.206   0.000   0.000   0.028   0.000
  0.000   0.000   0.000   0.000   0.059   0.000   0.000   0.004
 total augmentation occupancy for first ion, spin component:           2
 -0.022   0.007   0.000   0.010   0.000   0.000   0.000   0.000
  0.007  -0.006   0.000   0.009   0.000   0.000   0.000   0.000
  0.000   0.000  -0.002   0.000   0.000  -0.000   0.000   0.000
  0.010   0.009   0.000  -0.029   0.000   0.000  -0.001   0.000
  0.000   0.000   0.000   0.000  -0.002   0.000   0.000  -0.000
  0.000   0.000  -0.000   0.000   0.000  -0.000   0.000   0.000
  0.000   0.000   0.000  -0.001   0.000   0.000  -0.000   0.000
  0.000   0.000   0.000   0.000  -0.000   0.000   0.000  -0.000


------------------------ aborting loop because EDIFF is reached ----------------------------------------


    CHARGE:  cpu time    0.16: real time    0.16
    FORLOC:  cpu time    0.03: real time    0.03
    FORNL :  cpu time    0.47: real time    0.47
    STRESS:  cpu time    1.50: real time    1.50
    FORCOR:  cpu time    1.16: real time    1.16
    FORHAR:  cpu time    0.13: real time    0.13
    MIXING:  cpu time    0.02: real time    0.02

  FORCE on cell =-STRESS in cart. coord.  units (eV):
  Direction    XX          YY          ZZ          XY          YZ          ZX
  --------------------------------------------------------------------------------------
  Alpha Z     0.24381     0.24381     0.24381
  Ewald     -22.14917   -47.00960   210.22073     0.00000     0.00000     0.00000
  Hartree   202.72707   178.52041   241.20051    -0.00000    -0.00000    -0.00000
  E(xc)     -43.99535   -43.99535   -42.88730    -0.00000     0.00000     0.00000
  Local    -315.51371  -266.44731  -559.95972    -0.00000    -0.00000    -0.00000
  n-local   -18.23569   -18.24106   -29.68493    -0.00009    -0.00002     0.00006
  augment     6.24130     6.24183     5.75184     0.00000     0.00000     0.00000
  Kinetic   190.65227   190.65259   175.00487    -0.00003    -0.00000     0.00003
  Fock        0.00000     0.00000     0.00000     0.00000     0.00000     0.00000
  -------------------------------------------------------------------------------------
  Total      -0.02947    -0.03468    -0.11019     0.00000     0.00000     0.00000
  in kB      -0.02634    -0.03101    -0.09850     0.00000     0.00000     0.00000
  external pressure =       -0.05 kB  Pullay stress =        0.00 kB


 VOLUME and BASIS-vectors are now :
 -----------------------------------------------------------------------------
  energy-cutoff  :      500.00
  volume of cell :     1792.22
      direct lattice vectors                 reciprocal lattice vectors
    10.160000000  0.000000000  0.000000000     0.098425197  0.000000000  0.000000000
     0.000000000 11.760000000  0.000000000     0.000000000  0.085034014  0.000000000
     0.000000000  0.000000000 15.000000000     0.000000000  0.000000000  0.066666667

  length of vectors
    10.160000000 11.760000000 15.000000000     0.098425197  0.085034014  0.066666667


 FORCES acting on ions
    electron-ion (+dipol)            ewald-force                    non-local-force                 convergence-correction
 -----------------------------------------------------------------------------------------------
   0.242E-15 0.251E-12 0.236E+03   -.599E-16 0.217E-16 -.264E+03   0.000E+00 0.000E+00 0.281E+02   -.171E-13 -.367E-13 0.369E-02
   -.116E-14 0.181E-13 -.205E+03   0.771E-16 0.675E-17 0.264E+03   0.000E+00 0.000E+00 -.593E+02   -.361E-13 -.649E-13 -.640E-03
 -----------------------------------------------------------------------------------------------
   -.922E-15 0.269E-12 0.312E+02   0.172E-16 0.285E-16 0.000E+00   0.000E+00 0.000E+00 -.312E+02   -.531E-13 -.102E-12 0.305E-02
 
 
 POSITION                                       TOTAL-FORCE (eV/Angst)
 -----------------------------------------------------------------------------------
      0.00000      0.00000      0.03808         0.000000      0.000000      0.001839
      0.00000      0.00000      1.18142         0.000000      0.000000     -0.001839
 -----------------------------------------------------------------------------------
    total drift:                               -0.000000      0.000000     -0.032933


--------------------------------------------------------------------------------------------------------



  FREE ENERGIE OF THE ION-ELECTRON SYSTEM (eV)
  ---------------------------------------------------
  free  energy   TOTEN  =       -14.77075035 eV

  energy  without entropy=      -14.77614123  energy(sigma->0) =      -14.77254731
 
 d Force = 0.6765275E-06[-0.254E-06, 0.161E-05]  d Energy = 0.3007612E-04-0.294E-04
 d Force = 0.3645625E-01[ 0.365E-01, 0.365E-01]  d Ewald  = 0.3645625E-01 0.280E-09


--------------------------------------------------------------------------------------------------------


    POTLOK:  cpu time    1.22: real time    1.22


--------------------------------------------------------------------------------------------------------




--------------------------------------------------------------------------------------------------------


  
 reached required accuracy - stopping structural energy minimisation
     LOOP+:  cpu time   10.40: real time   10.42
    4ORBIT:  cpu time    0.00: real time    0.00

 total amount of memory used by VASP on root node   122049. kBytes
========================================================================

   base      :      30000. kBytes
   nonlr-proj:         53. kBytes
   fftplans  :      22742. kBytes
   grid      :      54677. kBytes
   one-center:          6. kBytes
   wavefun   :      14571. kBytes
 
  
  
 General timing and accounting informations for this job:
 ========================================================
  
                  Total CPU time used (sec):      287.339
                            User time (sec):      282.860
                          System time (sec):        4.479
                         Elapsed time (sec):      289.846
  
                   Maximum memory used (kb):      196312.
                   Average memory used (kb):           0.
  
                          Minor page faults:      1542941
                          Major page faults:            2
                 Voluntary context switches:         1476
