Warning: no access to tty (Bad file descriptor).
Thus no job control in this shell.
stty: standard input: Inappropriate ioctl for device
 running on    4 total cores
 distrk:  each k-point on    4 cores,    1 groups
 distr:  one band on    4 cores,    1 groups
 using from now: INCAR     
 vasp.5.3.3 18Dez12 (build Aug 26 2015 16:06:49) complex                        
  
 POSCAR found :  2 types and       2 ions
 scaLAPACK will be used

 ----------------------------------------------------------------------------- 
|                                                                             |
|  ADVICE TO THIS USER RUNNING 'VASP/VAMP'   (HEAR YOUR MASTER'S VOICE ...):  |
|                                                                             |
|      You have a (more or less) 'small supercell' and for smaller cells      |
|      it is recommended  to use the reciprocal-space projection scheme!      |
|      The real space optimization is not  efficient for small cells and it   |
|      is also less accurate ...                                              |
|      Therefore set LREAL=.FALSE. in the  INCAR file                         |
|                                                                             |
 ----------------------------------------------------------------------------- 

 LDA part: xc-table for Pade appr. of Perdew
 POSCAR, INCAR and KPOINTS ok, starting setup
 WARNING: small aliasing (wrap around) errors must be expected
 FFT: planning ...
 WAVECAR not read
 entering main loop
       N       E                     dE             d eps       ncg     rms          rms(c)
DAV:   1     0.672570460060E+02    0.67257E+02   -0.18941E+03   208   0.460E+02
DAV:   2     0.435422715169E+00   -0.66822E+02   -0.60734E+02   272   0.115E+02
DAV:   3    -0.137208072668E+02   -0.14156E+02   -0.14132E+02   252   0.657E+01
DAV:   4    -0.143966915895E+02   -0.67588E+00   -0.67446E+00   258   0.116E+01
DAV:   5    -0.143985409599E+02   -0.18494E-02   -0.18493E-02   216   0.612E-01    0.985E+00
DAV:   6    -0.922810278056E+01    0.51704E+01   -0.10556E+01   160   0.190E+01    0.400E+00
DAV:   7    -0.123041416003E+02   -0.30760E+01   -0.23858E+00   170   0.878E+00    0.196E+00
DAV:   8    -0.137375826670E+02   -0.14334E+01   -0.81354E-01   196   0.443E+00    0.104E+00
DAV:   9    -0.141520719413E+02   -0.41449E+00   -0.11576E-01   164   0.182E+00    0.600E-01
DAV:  10    -0.142001143787E+02   -0.48042E-01   -0.74412E-03   174   0.654E-01    0.366E-01
DAV:  11    -0.143403803794E+02   -0.14027E+00   -0.12599E-02   164   0.608E-01    0.163E-01
DAV:  12    -0.143762101056E+02   -0.35830E-01   -0.10526E-03   174   0.233E-01    0.133E-01
DAV:  13    -0.144430365257E+02   -0.66826E-01   -0.42010E-03   172   0.311E-01    0.745E-02
DAV:  14    -0.144839550362E+02   -0.40919E-01   -0.99638E-04   166   0.173E-01    0.212E-02
DAV:  15    -0.144914342440E+02   -0.74792E-02   -0.26588E-04   174   0.763E-02    0.128E-02
DAV:  16    -0.144929139870E+02   -0.14797E-02   -0.10115E-04   164   0.451E-02    0.537E-03
DAV:  17    -0.144929657275E+02   -0.51740E-04   -0.42310E-05   174   0.317E-02
   1 F= -.14492966E+02 E0= -.14494781E+02  d E =-.144930E+02  mag=     0.0400
 curvature:   0.00 expect dE= 0.000E+00 dE for cont linesearch  0.000E+00
 trial: gam= 0.00000 g(F)=  0.425E+01 g(S)=  0.000E+00 ort = 0.000E+00 (trialstep = 0.100E+01)
 search vector abs. value=  0.425E+01
 bond charge predicted
       N       E                     dE             d eps       ncg     rms          rms(c)
DAV:   1     0.708250211984E+02    0.85318E+02   -0.12356E+03   162   0.320E+02    0.126E+02
DAV:   2     0.748217942126E+02    0.39968E+01   -0.42788E+01   208   0.691E+01    0.115E+02
DAV:   3     0.367113299744E+01   -0.71151E+02   -0.60071E+02   160   0.190E+02    0.389E+02
DAV:   4     0.784039577396E+02    0.74733E+02   -0.57720E+02   288   0.117E+02    0.517E+01
DAV:   5     0.774446720061E+02   -0.95929E+00   -0.97915E+00   162   0.264E+01    0.398E+00
DAV:   6     0.777392927769E+02    0.29462E+00   -0.45028E-01   240   0.601E+00    0.273E+00
DAV:   7     0.777820061285E+02    0.42713E-01   -0.31077E-02   174   0.133E+00    0.281E+00
DAV:   8     0.778043803589E+02    0.22374E-01   -0.70233E-03   170   0.571E-01    0.195E+00
DAV:   9     0.778845414996E+02    0.80161E-01   -0.13230E-01   168   0.268E+00    0.293E+00
DAV:  10     0.778994567419E+02    0.14915E-01   -0.24203E-02   172   0.106E+00    0.214E+00
DAV:  11     0.778981403127E+02   -0.13164E-02   -0.12362E-02   166   0.781E-01    0.170E+00
DAV:  12     0.778985576894E+02    0.41738E-03   -0.53522E-03   172   0.551E-01    0.733E-01
DAV:  13     0.778994079870E+02    0.85030E-03   -0.29660E-03   164   0.345E-01    0.742E-01
DAV:  14     0.778972279788E+02   -0.21800E-02   -0.14503E-03   164   0.222E-01    0.301E-01
DAV:  15     0.778946957406E+02   -0.25322E-02   -0.49714E-04   170   0.157E-01    0.368E-01
DAV:  16     0.778936043013E+02   -0.10914E-02   -0.59482E-04   174   0.111E-01    0.183E-01
DAV:  17     0.778928595948E+02   -0.74471E-03   -0.37949E-04   184   0.108E-01    0.436E-02
DAV:  18     0.778917606097E+02   -0.10990E-02   -0.16404E-04   216   0.543E-02    0.445E-02
DAV:  19     0.778913828925E+02   -0.37772E-03   -0.44649E-05   198   0.232E-02    0.512E-02
DAV:  20     0.778911572232E+02   -0.22567E-03   -0.24925E-05   196   0.233E-02    0.206E-02
DAV:  21     0.778910198118E+02   -0.13741E-03   -0.20423E-05   176   0.244E-02    0.104E-02
DAV:  22     0.778909917551E+02   -0.28057E-04   -0.95722E-07   192   0.533E-03
   2 F= 0.77890992E+02 E0= 0.77889165E+02  d E =0.923840E+02  mag=     0.0440
 trial-energy change:   92.383957  1 .order  201.233938   -4.248507  406.716384
 step:   0.0103(harm=  0.0103)  dis= 0.00331  next Energy=   -14.514926 (dE=-0.220E-01)
 bond charge predicted
       N       E                     dE             d eps       ncg     rms          rms(c)
DAV:   1    -0.225943318172E+02   -0.10049E+03   -0.11896E+03   160   0.335E+02    0.130E+02
DAV:   2    -0.163541806854E+02    0.62402E+01   -0.32696E+01   192   0.502E+01    0.773E+01
DAV:   3    -0.155373340982E+02    0.81685E+00   -0.28097E+01   238   0.346E+01    0.824E+00
DAV:   4    -0.146368975979E+02    0.90044E+00   -0.98828E+00   170   0.196E+01    0.245E+00
DAV:   5    -0.145361215124E+02    0.10078E+00   -0.64344E-01   228   0.669E+00    0.977E-01
DAV:   6    -0.145276892878E+02    0.84322E-02   -0.70848E-02   180   0.210E+00    0.352E-01
DAV:   7    -0.145301036575E+02   -0.24144E-02   -0.31389E-03   210   0.439E-01    0.161E-01
DAV:   8    -0.145312383729E+02   -0.11347E-02   -0.68077E-04   166   0.206E-01    0.122E-01
DAV:   9    -0.145323920957E+02   -0.11537E-02   -0.20021E-04   176   0.916E-02    0.488E-02
DAV:  10    -0.145338247185E+02   -0.14326E-02   -0.13738E-04   170   0.710E-02    0.267E-02
DAV:  11    -0.145348563288E+02   -0.10316E-02   -0.15870E-04   174   0.688E-02    0.375E-02
DAV:  12    -0.145353317144E+02   -0.47539E-03   -0.76431E-05   174   0.522E-02    0.129E-02
DAV:  13    -0.145355560217E+02   -0.22431E-03   -0.95078E-05   162   0.487E-02    0.164E-02
DAV:  14    -0.145357380689E+02   -0.18205E-03   -0.18940E-05   170   0.236E-02    0.531E-03
DAV:  15    -0.145359753234E+02   -0.23725E-03   -0.60095E-06   160   0.153E-02    0.372E-03
DAV:  16    -0.145361608521E+02   -0.18553E-03   -0.11017E-05   168   0.135E-02    0.187E-03
DAV:  17    -0.145361757877E+02   -0.14936E-04   -0.11545E-06   164   0.524E-03
   3 F= -.14536176E+02 E0= -.14537991E+02  d E =-.432101E-01  mag=    -0.0431
 curvature:  -0.01 expect dE=-0.191E-01 dE for cont linesearch -0.191E-01
 ZBRENT: interpolating
 opt :   0.0199  next Energy=   -14.555075 (dE=-0.621E-01)
 bond charge predicted
       N       E                     dE             d eps       ncg     rms          rms(c)
DAV:   1    -0.145727698679E+02   -0.36609E-01   -0.93452E-02   160   0.288E+00    0.132E-01
DAV:   2    -0.145727734339E+02   -0.35660E-05   -0.22160E-03   178   0.393E-01    0.576E-02
DAV:   3    -0.145727204717E+02    0.52962E-04   -0.17952E-04   176   0.113E-01
   4 F= -.14572720E+02 E0= -.14574493E+02  d E =-.797547E-01  mag=    -0.0428
 curvature:  -0.01 expect dE=-0.164E-01 dE for cont linesearch -0.164E-01
 ZBRENT: interpolating
 opt :   0.1503  next Energy=   -14.815778 (dE=-0.323E+00)
 bond charge predicted
       N       E                     dE             d eps       ncg     rms          rms(c)
DAV:   1    -0.147608996501E+02   -0.18813E+00   -0.17936E+01   164   0.404E+01    0.204E+00
DAV:   2    -0.147618006556E+02   -0.90101E-03   -0.43000E-01   178   0.574E+00    0.856E-01
DAV:   3    -0.147464313787E+02    0.15369E-01   -0.37364E-02   232   0.164E+00    0.371E-01
DAV:   4    -0.147425446347E+02    0.38867E-02   -0.89500E-03   168   0.744E-01    0.349E-01
DAV:   5    -0.147455009481E+02   -0.29563E-02   -0.19970E-03   162   0.265E-01    0.967E-02
DAV:   6    -0.147455759057E+02   -0.74958E-04   -0.22836E-04   182   0.985E-02
   5 F= -.14745576E+02 E0= -.14747448E+02  d E =-.252610E+00  mag=    -0.0421
 curvature:  -0.08 expect dE=-0.438E-01 dE for cont linesearch -0.438E-01
 ZBRENT: interpolating
 opt :   0.1115  next Energy=   -14.776050 (dE=-0.283E+00)
 bond charge predicted
       N       E                     dE             d eps       ncg     rms          rms(c)
DAV:   1    -0.147712236866E+02   -0.25723E-01   -0.16357E+00   166   0.122E+01    0.589E-01
DAV:   2    -0.147701726766E+02    0.10510E-02   -0.34461E-02   174   0.164E+00    0.267E-01
DAV:   3    -0.147691276987E+02    0.10450E-02   -0.44297E-03   178   0.561E-01    0.951E-02
DAV:   4    -0.147691813606E+02   -0.53662E-04   -0.37212E-04   170   0.172E-01
   6 F= -.14769181E+02 E0= -.14770829E+02  d E =-.276216E+00  mag=    -0.0417
 curvature:  -0.05 expect dE=-0.159E-02 dE for cont linesearch -0.159E-02
 ZBRENT: interpolating
 opt :   0.1187  next Energy=   -14.770478 (dE=-0.278E+00)
 bond charge predicted
       N       E                     dE             d eps       ncg     rms          rms(c)
DAV:   1    -0.147707027762E+02   -0.15751E-02   -0.56169E-02   168   0.226E+00    0.107E-01
DAV:   2    -0.147706007679E+02    0.10201E-03   -0.14106E-03   168   0.323E-01    0.881E-02
DAV:   3    -0.147705626070E+02    0.38161E-04   -0.23591E-04   168   0.934E-02
   7 F= -.14770563E+02 E0= -.14772515E+02  d E =-.277597E+00  mag=    -0.0421
 curvature:  -0.04 expect dE=-0.982E-05 dE for cont linesearch -0.982E-05
 ZBRENT: interpolating
 opt :   0.1194  next Energy=   -14.770573 (dE=-0.278E+00)
 bond charge predicted
       N       E                     dE             d eps       ncg     rms          rms(c)
DAV:   1    -0.147706893507E+02   -0.88583E-04   -0.43844E-04   168   0.192E-01    0.201E-02
DAV:   2    -0.147707006427E+02   -0.11292E-04   -0.15963E-05   172   0.327E-02
   8 F= -.14770701E+02 E0= -.14772530E+02  d E =-.277735E+00  mag=    -0.0420
 curvature:  -0.05 expect dE=-0.188E-05 dE for cont linesearch -0.188E-05
 ZBRENT: interpolating
 opt :   0.1192  next Energy=   -14.770702 (dE=-0.278E+00)
 bond charge predicted
       N       E                     dE             d eps       ncg     rms          rms(c)
DAV:   1    -0.147707168180E+02   -0.27467E-04   -0.54743E-05   168   0.674E-02    0.126E-02
DAV:   2    -0.147707202731E+02   -0.34551E-05   -0.10176E-05   168   0.198E-02
   9 F= -.14770720E+02 E0= -.14772561E+02  d E =-.277755E+00  mag=    -0.0419
 curvature:  -0.03 expect dE=-0.425E-06 dE for cont linesearch -0.425E-06
 ZBRENT: interpolating
 opt :   0.1190  next Energy=   -14.770721 (dE=-0.278E+00)
 bond charge predicted
       N       E                     dE             d eps       ncg     rms          rms(c)
DAV:   1    -0.147707375828E+02   -0.20765E-04   -0.55649E-05   170   0.690E-02    0.331E-03
DAV:   2    -0.147707503492E+02   -0.12766E-04   -0.16349E-06   174   0.113E-02
  10 F= -.14770750E+02 E0= -.14772547E+02  d E =-.277785E+00  mag=    -0.0419
 curvature:  -0.07 expect dE=-0.239E-07 dE for cont linesearch -0.239E-07
 trial: gam=-0.00028 g(F)=  0.326E-06 g(S)=  0.000E+00 ort = 0.118E-02 (trialstep = 0.824E+00)
 search vector abs. value=  0.100E-09
 reached required accuracy - stopping structural energy minimisation
