<?xml version="1.0" encoding="ISO-8859-1"?>
<modeling>
 <generator>
  <i name="program" type="string">vasp </i>
  <i name="version" type="string">5.3.3  </i>
  <i name="subversion" type="string">18Dez12 (build Aug 26 2015 16:06:49) complex                          parallel </i>
  <i name="platform" type="string">LinuxIFC </i>
  <i name="date" type="string">2020 05 04 </i>
  <i name="time" type="string">00:35:32 </i>
 </generator>
 <incar>
  <i type="string" name="SYSTEM"> Beta12Borophene !The name of the system</i>
  <i type="string" name="PREC">normal   !normal or accurate</i>
  <i type="string" name="ALGO"> Normal   !def=Normal. Sets IALGO and LD</i>
  <i type="int" name="ISPIN">     2</i>
  <i type="int" name="NELM">    60</i>
  <i type="int" name="IBRION">     2</i>
  <i name="EDIFFG">     -0.01000000</i>
  <i type="int" name="NSW">  1000</i>
  <i type="int" name="ISIF">     2</i>
  <i name="ENCUT">    500.00000000</i>
  <i name="POTIM">      0.50000000</i>
  <i type="string" name="LREAL"> Auto   !values=.FALSE. or Auto  (def=.F</i>
  <i type="int" name="ISMEAR">     1</i>
  <i name="SIGMA">      0.10000000</i>
  <i type="logical" name="LWAVE"> F  </i>
  <i type="logical" name="LCHARG"> F  </i>
  <i type="logical" name="LVTOT"> F  </i>
  <i type="logical" name="LELF"> F  </i>
  <i type="int" name="NELM">    60</i>
  <i type="string" name="GGA"> PE   !GGA flavor: PE=PBE, RP=RPBE, RE=r</i>
  <i type="logical" name="LDIPOL"> T  </i>
  <i type="int" name="IDIPOL">     3</i>
 </incar>
 <kpoints>
  <generation param="Monkhorst-Pack">
   <v type="int" name="divisions">       3        3        2 </v>
   <v name="usershift">      0.00000000       0.00000000       0.00000000 </v>
   <v name="genvec1">      0.33333333       0.00000000       0.00000000 </v>
   <v name="genvec2">      0.00000000       0.33333333       0.00000000 </v>
   <v name="genvec3">      0.00000000       0.00000000       0.50000000 </v>
   <v name="shift">      0.00000000       0.00000000       0.50000000 </v>
  </generation>
  <varray name="kpointlist" >
   <v>       0.00000000       0.00000000       0.25000000 </v>
   <v>       0.33333333       0.00000000       0.25000000 </v>
   <v>       0.00000000       0.33333333       0.25000000 </v>
   <v>       0.33333333       0.33333333       0.25000000 </v>
  </varray>
  <varray name="weights" >
   <v>       0.11111111 </v>
   <v>       0.22222222 </v>
   <v>       0.22222222 </v>
   <v>       0.44444444 </v>
  </varray>
 </kpoints>
 <parameters>
  <separator name="general" >
   <i type="string" name="SYSTEM">Beta12Borophene !The name of the system</i>
   <i type="logical" name="LCOMPAT"> F  </i>
  </separator>
  <separator name="electronic" >
   <i type="string" name="PREC">normal</i>
   <i name="ENMAX">    500.00000000</i>
   <i name="ENAUG">    644.87300000</i>
   <i name="EDIFF">      0.00010000</i>
   <i type="int" name="IALGO">    38</i>
   <i type="int" name="IWAVPR">    11</i>
   <i type="int" name="NBANDS">    10</i>
   <i name="NELECT">     10.00000000</i>
   <i type="int" name="TURBO">     0</i>
   <i type="int" name="IRESTART">     0</i>
   <i type="int" name="NREBOOT">     0</i>
   <i type="int" name="NMIN">     0</i>
   <i name="EREF">      0.00000000</i>
   <separator name="electronic smearing" >
    <i type="int" name="ISMEAR">     1</i>
    <i name="SIGMA">      0.10000000</i>
    <i name="KSPACING">      0.50000000</i>
    <i type="logical" name="KGAMMA"> T  </i>
   </separator>
   <separator name="electronic projectors" >
    <i type="logical" name="LREAL"> T  </i>
    <v name="ROPT">     -0.00050000     -0.00050000</v>
    <i type="int" name="LMAXPAW">  -100</i>
    <i type="int" name="LMAXMIX">     2</i>
    <i type="logical" name="NLSPLINE"> F  </i>
   </separator>
   <separator name="electronic startup" >
    <i type="int" name="ISTART">     0</i>
    <i type="int" name="ICHARG">     2</i>
    <i type="int" name="INIWAV">     1</i>
   </separator>
   <separator name="electronic spin" >
    <i type="int" name="ISPIN">     2</i>
    <i type="logical" name="LNONCOLLINEAR"> F  </i>
    <v name="MAGMOM">      1.00000000      1.00000000</v>
    <i name="NUPDOWN">     -1.00000000</i>
    <i type="logical" name="LSORBIT"> F  </i>
    <v name="SAXIS">      0.00000000      0.00000000      1.00000000</v>
    <i type="logical" name="LSPIRAL"> F  </i>
    <v name="QSPIRAL">      0.00000000      0.00000000      0.00000000</v>
    <i type="logical" name="LZEROZ"> F  </i>
   </separator>
   <separator name="electronic exchange-correlation" >
    <i type="logical" name="LASPH"> F  </i>
    <i type="logical" name="LMETAGGA"> F  </i>
   </separator>
   <separator name="electronic convergence" >
    <i type="int" name="NELM">    60</i>
    <i type="int" name="NELMDL">    -5</i>
    <i type="int" name="NELMIN">     2</i>
    <i name="ENINI">    500.00000000</i>
    <separator name="electronic convergence detail" >
     <i type="logical" name="LDIAG"> T  </i>
     <i type="logical" name="LSUBROT"> T  </i>
     <i name="WEIMIN">      0.00100000</i>
     <i name="EBREAK">      0.00000250</i>
     <i name="DEPER">      0.30000000</i>
     <i type="int" name="NRMM">     4</i>
     <i name="TIME">      0.40000000</i>
    </separator>
   </separator>
   <separator name="electronic mixer" >
    <i name="AMIX">      0.40000000</i>
    <i name="BMIX">      1.00000000</i>
    <i name="AMIN">      0.10000000</i>
    <i name="AMIX_MAG">      1.60000000</i>
    <i name="BMIX_MAG">      1.00000000</i>
    <separator name="electronic mixer details" >
     <i type="int" name="IMIX">     4</i>
     <i type="int" name="MAXMIX">   -45</i>
     <i name="WC">    100.00000000</i>
     <i type="int" name="INIMIX">     1</i>
     <i type="int" name="MIXPRE">     1</i>
     <i type="int" name="MREMOVE">     5</i>
    </separator>
   </separator>
   <separator name="electronic dipolcorrection" >
    <i type="logical" name="LDIPOL"> T  </i>
    <i type="logical" name="LMONO"> F  </i>
    <i type="int" name="IDIPOL">     3</i>
    <i name="EPSILON">      1.00000000</i>
    <v name="DIPOL">   -100.00000000   -100.00000000   -100.00000000</v>
    <i name="EFIELD">      0.00000000</i>
   </separator>
  </separator>
  <separator name="grids" >
   <i type="int" name="NGX">    56</i>
   <i type="int" name="NGY">    64</i>
   <i type="int" name="NGZ">    84</i>
   <i type="int" name="NGXF">   112</i>
   <i type="int" name="NGYF">   128</i>
   <i type="int" name="NGZF">   168</i>
   <i type="logical" name="ADDGRID"> F  </i>
  </separator>
  <separator name="ionic" >
   <i type="int" name="NSW">  1000</i>
   <i type="int" name="IBRION">     2</i>
   <i type="int" name="ISIF">     2</i>
   <i name="PSTRESS">      0.00000000</i>
   <i name="EDIFFG">     -0.01000000</i>
   <i type="int" name="NFREE">     1</i>
   <i name="POTIM">      0.50000000</i>
   <i name="SMASS">     -3.00000000</i>
   <i name="SCALEE">      1.00000000</i>
  </separator>
  <separator name="ionic md" >
   <i name="TEBEG">      0.00010000</i>
   <i name="TEEND">      0.00010000</i>
   <i type="int" name="NBLOCK">     1</i>
   <i type="int" name="KBLOCK">  1000</i>
   <i type="int" name="NPACO">   256</i>
   <i name="APACO">     16.00000000</i>
  </separator>
  <separator name="symmetry" >
   <i type="int" name="ISYM">     2</i>
   <i name="SYMPREC">      0.00001000</i>
  </separator>
  <separator name="dos" >
   <i type="logical" name="LORBIT"> F  </i>
   <v name="RWIGS">     -1.00000000     -1.00000000</v>
   <i type="int" name="NEDOS">   301</i>
   <i name="EMIN">     10.00000000</i>
   <i name="EMAX">    -10.00000000</i>
   <i name="EFERMI">      0.00000000</i>
  </separator>
  <separator name="writing" >
   <i type="int" name="NWRITE">     2</i>
   <i type="logical" name="LWAVE"> F  </i>
   <i type="logical" name="LCHARG"> F  </i>
   <i type="logical" name="LPARD"> F  </i>
   <i type="logical" name="LVTOT"> F  </i>
   <i type="logical" name="LVHAR"> F  </i>
   <i type="logical" name="LELF"> F  </i>
   <i type="logical" name="LOPTICS"> F  </i>
   <v name="STM">      0.00000000      0.00000000      0.00000000      0.00000000      0.00000000      0.00000000      0.00000000</v>
  </separator>
  <separator name="performance" >
   <i type="int" name="NPAR">     1</i>
   <i type="int" name="NSIM">     4</i>
   <i type="int" name="NBLK">    -1</i>
   <i type="logical" name="LPLANE"> T  </i>
   <i type="logical" name="LSCALAPACK"> T  </i>
   <i type="logical" name="LSCAAWARE"> F  </i>
   <i type="logical" name="LSCALU"> F  </i>
   <i type="logical" name="LASYNC"> F  </i>
   <i type="logical" name="LORBITALREAL"> F  </i>
  </separator>
  <separator name="miscellaneous" >
   <i type="int" name="IDIOT">     3</i>
   <i type="logical" name="LMUSIC"> F  </i>
   <v name="POMASS">     12.01100000     16.00000000</v>
   <v name="DARWINR">      0.00000000      0.00000000</v>
   <v name="DARWINV">      1.00000000      1.00000000</v>
   <i type="logical" name="LCORR"> T  </i>
  </separator>
  <i type="logical" name="GGA_COMPAT"> T  </i>
  <i type="logical" name="LBERRY"> F  </i>
  <i type="int" name="ICORELEVEL">     0</i>
  <i type="logical" name="LDAU"> F  </i>
  <i type="int" name="I_CONSTRAINED_M">     0</i>
  <separator name="electronic exchange-correlation" >
   <i type="string" name="GGA">PE</i>
   <i type="int" name="VOSKOWN">     0</i>
   <i type="logical" name="LHFCALC"> F  </i>
   <i type="string" name="PRECFOCK"></i>
   <i type="logical" name="LSYMGRAD"> F  </i>
   <i type="logical" name="LHFONE"> F  </i>
   <i type="logical" name="LRHFCALC"> F  </i>
   <i type="logical" name="LTHOMAS"> F  </i>
   <i type="logical" name="LMODELHF"> F  </i>
   <i name="ENCUT4O">     -1.00000000</i>
   <i type="int" name="EXXOEP">     0</i>
   <i type="int" name="FOURORBIT">     0</i>
   <i name="AEXX">      0.00000000</i>
   <i name="HFALPHA">      0.00000000</i>
   <i name="MCALPHA">      0.00000000</i>
   <i name="ALDAX">      1.00000000</i>
   <i name="AGGAX">      1.00000000</i>
   <i name="ALDAC">      1.00000000</i>
   <i name="AGGAC">      1.00000000</i>
   <i type="int" name="NKREDX">     1</i>
   <i type="int" name="NKREDY">     1</i>
   <i type="int" name="NKREDZ">     1</i>
   <i type="logical" name="SHIFTRED"> F  </i>
   <i type="logical" name="ODDONLY"> F  </i>
   <i type="logical" name="EVENONLY"> F  </i>
   <i type="int" name="LMAXFOCK">     0</i>
   <i type="int" name="NMAXFOCKAE">     0</i>
   <i type="logical" name="LFOCKAEDFT"> F  </i>
   <i name="HFSCREEN">      0.00000000</i>
   <i name="HFSCREENC">      0.00000000</i>
   <i type="int" name="NBANDSGWLOW">     0</i>
  </separator>
  <separator name="vdW DFT" >
   <i type="logical" name="LUSE_VDW"> F  </i>
   <i name="Zab_VDW">     -0.84910000</i>
   <i name="PARAM1">      0.12340000</i>
   <i name="PARAM2">      1.00000000</i>
   <i name="PARAM3">      0.00000000</i>
  </separator>
  <separator name="model GW" >
   <i type="int" name="MODEL_GW">     0</i>
   <i name="MODEL_EPS0">    537.66720000</i>
   <i name="MODEL_ALPHA">      1.00000000</i>
  </separator>
  <separator name="linear response parameters" >
   <i type="logical" name="LEPSILON"> F  </i>
   <i type="logical" name="LRPA"> F  </i>
   <i type="logical" name="LNABLA"> F  </i>
   <i type="logical" name="LVEL"> F  </i>
   <i type="int" name="KINTER">     0</i>
   <i name="CSHIFT">      0.10000000</i>
   <i name="OMEGAMAX">     -1.00000000</i>
   <i name="DEG_THRESHOLD">      0.00200000</i>
  </separator>
  <separator name="orbital magnetization" >
   <i type="logical" name="NUCIND"> F  </i>
   <v name="MAGPOS">      0.00000000      0.00000000      0.00000000</v>
   <i type="logical" name="LNICSALL"> T  </i>
   <i type="logical" name="ORBITALMAG"> F  </i>
   <i type="logical" name="LMAGBLOCH"> F  </i>
   <i type="logical" name="LCHIMAG"> F  </i>
   <i type="logical" name="LGAUGE"> T  </i>
   <i type="int" name="MAGATOM">     0</i>
   <v name="MAGDIPOL">      0.00000000      0.00000000      0.00000000</v>
   <v name="AVECCONST">      0.00000000      0.00000000      0.00000000</v>
  </separator>
  <separator name="response functions" >
   <i type="logical" name="LADDER"> F  </i>
   <i type="logical" name="LFXC"> F  </i>
   <i type="logical" name="LHARTREE"> T  </i>
   <i type="int" name="IBSE">     0</i>
   <i type="logical" name="LTCTE"> F  </i>
   <i type="logical" name="LTETE"> F  </i>
   <i type="logical" name="LTRIPLET"> F  </i>
   <i type="logical" name="LFXCEPS"> F  </i>
   <i type="logical" name="L2ORDER"> F  </i>
   <i type="logical" name="LUSEW"> F  </i>
   <i name="ENCUTGW">     -2.00000000</i>
   <i name="ENCUTGWSOFT">     -2.00000000</i>
   <i name="ENCUTLF">     -1.00000000</i>
   <i type="int" name="LMAXMP2">    -1</i>
   <i name="SCISSOR">      0.00000000</i>
   <i type="int" name="NOMEGA">     0</i>
   <i type="int" name="NOMEGAR">     0</i>
   <i type="int" name="NBANDSGW">    -1</i>
   <i type="int" name="NBANDSO">    -1</i>
   <i type="int" name="NBANDSV">    -1</i>
   <i type="int" name="NELM">    60</i>
   <i type="int" name="DIM">     3</i>
   <i type="int" name="ANTIRES">     0</i>
   <i name="OMEGAMAX">    -30.00000000</i>
   <i name="OMEGATL">   -200.00000000</i>
   <i type="int" name="OMEGAGRID">     0</i>
   <i name="CSHIFT">     -0.10000000</i>
   <i type="logical" name="SELFENERGY"> F  </i>
   <i type="logical" name="LSPECTRAL"> F  </i>
   <i type="logical" name="ODDONLYGW"> F  </i>
   <i type="logical" name="EVENONLYGW"> F  </i>
   <i type="int" name="NKREDLFX">     1</i>
   <i type="int" name="NKREDLFY">     1</i>
   <i type="int" name="NKREDLFZ">     1</i>
   <i type="int" name="MAXMEM">  1800</i>
   <i type="int" name="TELESCOPE">     0</i>
  </separator>
 </parameters>
 <atominfo>
  <atoms>       2 </atoms>
  <types>       2 </types>
  <array name="atoms" >
   <dimension dim="1">ion</dimension>
   <field type="string">element</field>
   <field type="int">atomtype</field>
   <set>
    <rc><c>C </c><c>   1</c></rc>
    <rc><c>O </c><c>   2</c></rc>
   </set>
  </array>
  <array name="atomtypes" >
   <dimension dim="1">type</dimension>
   <field type="int">atomspertype</field>
   <field type="string">element</field>
   <field>mass</field>
   <field>valence</field>
   <field type="string">pseudopotential</field>
   <set>
    <rc><c>   1</c><c>C </c><c>     12.01100000</c><c>      4.00000000</c><c>  PAW_PBE C 08Apr2002                   </c></rc>
    <rc><c>   1</c><c>O </c><c>     16.00000000</c><c>      6.00000000</c><c>  PAW_PBE O 08Apr2002                   </c></rc>
   </set>
  </array>
 </atominfo>
 <structure name="initialpos" >
  <crystal>
   <varray name="basis" >
    <v>      10.16000000       0.00000000       0.00000000 </v>
    <v>       0.00000000      11.76000000       0.00000000 </v>
    <v>       0.00000000       0.00000000      15.00000000 </v>
   </varray>
   <i name="volume">   1792.22400000 </i>
   <varray name="rec_basis" >
    <v>       0.09842520       0.00000000       0.00000000 </v>
    <v>       0.00000000       0.08503401       0.00000000 </v>
    <v>       0.00000000       0.00000000       0.06666667 </v>
   </varray>
  </crystal>
  <varray name="positions" >
   <v>       0.00000000       0.00000000       0.00000000 </v>
   <v>       0.00000000       0.00000000       0.08130000 </v>
  </varray>
 </structure>
 <calculation>
  <scstep>
   <time name="dav">    2.00    2.00</time>
   <time name="total">    3.14    3.14</time>
   <dipole>
    <v name="dipole">      0.00000000       0.00000000      -0.00000631 </v>
    <i name="Tr[quadrupol]">      0.99762646 </i>
    <i name="Echarged">      0.00000000 </i>
    <i name="Edipol_quadrupol">      0.00000000 </i>
    <i name="Eion">      0.00000000 </i>
   </dipole>
   <energy>
    <i name="alphaZ">      0.24381160 </i>
    <i name="ewald">    122.18749565 </i>
    <i name="hartreedc">   -590.17911099 </i>
    <i name="XCdc">     39.16375819 </i>
    <i name="pawpsdc">    454.79982171 </i>
    <i name="pawaedc">   -457.15426643 </i>
    <i name="eentropy">     -0.01762376 </i>
    <i name="bandstr">    -81.29169622 </i>
    <i name="atom">    579.50485627 </i>
    <i name="e_fr_energy">     67.25704601 </i>
    <i name="e_wo_entrp">     67.27466977 </i>
    <i name="e_0_energy">     67.26292059 </i>
   </energy>
  </scstep>
  <scstep>
   <time name="dav">    2.47    2.47</time>
   <time name="total">    2.48    2.48</time>
   <dipole>
    <v name="dipole">      0.00000000       0.00000000      -0.00000631 </v>
    <i name="Tr[quadrupol]">      0.99762646 </i>
    <i name="Echarged">      0.00000000 </i>
    <i name="Edipol_quadrupol">      0.00000000 </i>
    <i name="Eion">      0.00000000 </i>
   </dipole>
   <energy>
    <i name="e_fr_energy">      0.43542272 </i>
    <i name="e_wo_entrp">      0.43510061 </i>
    <i name="e_0_energy">      0.43531535 </i>
   </energy>
  </scstep>
  <scstep>
   <time name="dav">    2.28    2.29</time>
   <time name="total">    2.29    2.30</time>
   <dipole>
    <v name="dipole">      0.00000000       0.00000000      -0.00000631 </v>
    <i name="Tr[quadrupol]">      0.99762646 </i>
    <i name="Echarged">      0.00000000 </i>
    <i name="Edipol_quadrupol">      0.00000000 </i>
    <i name="Eion">      0.00000000 </i>
   </dipole>
   <energy>
    <i name="e_fr_energy">    -13.72080727 </i>
    <i name="e_wo_entrp">    -13.72383976 </i>
    <i name="e_0_energy">    -13.72181810 </i>
   </energy>
  </scstep>
  <scstep>
   <time name="dav">    2.32    2.42</time>
   <time name="total">    2.33    2.52</time>
   <dipole>
    <v name="dipole">      0.00000000       0.00000000      -0.00000631 </v>
    <i name="Tr[quadrupol]">      0.99762646 </i>
    <i name="Echarged">      0.00000000 </i>
    <i name="Edipol_quadrupol">      0.00000000 </i>
    <i name="Eion">      0.00000000 </i>
   </dipole>
   <energy>
    <i name="e_fr_energy">    -14.39669159 </i>
    <i name="e_wo_entrp">    -14.39959054 </i>
    <i name="e_0_energy">    -14.39765791 </i>
   </energy>
  </scstep>
  <scstep>
   <time name="dav">    2.01    2.01</time>
   <time name="total">    2.24    2.25</time>
   <dipole>
    <v name="dipole">      0.00000000       0.00000000      -0.00000631 </v>
    <i name="Tr[quadrupol]">      0.99762646 </i>
    <i name="Echarged">      0.00000000 </i>
    <i name="Edipol_quadrupol">      0.00000000 </i>
    <i name="Eion">      0.00000000 </i>
   </dipole>
   <energy>
    <i name="e_fr_energy">    -14.39854096 </i>
    <i name="e_wo_entrp">    -14.40143991 </i>
    <i name="e_0_energy">    -14.39950728 </i>
   </energy>
  </scstep>
  <scstep>
   <time name="dav">    1.63    1.63</time>
   <time name="total">    3.06    3.06</time>
   <dipole>
    <v name="dipole">      0.00000000       0.00000000       0.02340613 </v>
    <i name="Tr[quadrupol]">      1.00890926 </i>
    <i name="Echarged">      0.00000000 </i>
    <i name="Edipol_quadrupol">      0.00000000 </i>
    <i name="Eion">      0.00000000 </i>
   </dipole>
   <energy>
    <i name="e_fr_energy">     -9.22810278 </i>
    <i name="e_wo_entrp">     -9.23100256 </i>
    <i name="e_0_energy">     -9.22906937 </i>
   </energy>
  </scstep>
  <scstep>
   <time name="dav">    1.67    1.67</time>
   <time name="total">    3.08    3.08</time>
   <dipole>
    <v name="dipole">      0.00000000       0.00000000       0.00863860 </v>
    <i name="Tr[quadrupol]">      0.99492655 </i>
    <i name="Echarged">      0.00000000 </i>
    <i name="Edipol_quadrupol">      0.00000000 </i>
    <i name="Eion">      0.00000000 </i>
   </dipole>
   <energy>
    <i name="e_fr_energy">    -12.30414160 </i>
    <i name="e_wo_entrp">    -12.30726403 </i>
    <i name="e_0_energy">    -12.30518241 </i>
   </energy>
  </scstep>
  <scstep>
   <time name="dav">    1.87    1.87</time>
   <time name="total">    3.28    3.28</time>
   <dipole>
    <v name="dipole">      0.00000000       0.00000000       0.01365369 </v>
    <i name="Tr[quadrupol]">      0.99106647 </i>
    <i name="Echarged">      0.00000000 </i>
    <i name="Edipol_quadrupol">      0.00000000 </i>
    <i name="Eion">      0.00000000 </i>
   </dipole>
   <energy>
    <i name="e_fr_energy">    -13.73758267 </i>
    <i name="e_wo_entrp">    -13.74386692 </i>
    <i name="e_0_energy">    -13.73967742 </i>
   </energy>
  </scstep>
  <scstep>
   <time name="dav">    1.64    1.64</time>
   <time name="total">    3.05    3.05</time>
   <dipole>
    <v name="dipole">      0.00000000       0.00000000       0.01446092 </v>
    <i name="Tr[quadrupol]">      0.99664832 </i>
    <i name="Echarged">      0.00000000 </i>
    <i name="Edipol_quadrupol">      0.00000000 </i>
    <i name="Eion">      0.00000000 </i>
   </dipole>
   <energy>
    <i name="e_fr_energy">    -14.15207194 </i>
    <i name="e_wo_entrp">    -14.15509455 </i>
    <i name="e_0_energy">    -14.15307948 </i>
   </energy>
  </scstep>
  <scstep>
   <time name="dav">    1.71    1.71</time>
   <time name="total">    3.15    3.15</time>
   <dipole>
    <v name="dipole">      0.00000000       0.00000000       0.01484869 </v>
    <i name="Tr[quadrupol]">      1.00140915 </i>
    <i name="Echarged">      0.00000000 </i>
    <i name="Edipol_quadrupol">      0.00000000 </i>
    <i name="Eion">      0.00000000 </i>
   </dipole>
   <energy>
    <i name="e_fr_energy">    -14.20011438 </i>
    <i name="e_wo_entrp">    -14.20656576 </i>
    <i name="e_0_energy">    -14.20226484 </i>
   </energy>
  </scstep>
  <scstep>
   <time name="dav">    1.63    1.63</time>
   <time name="total">    3.14    3.14</time>
   <dipole>
    <v name="dipole">      0.00000000       0.00000000       0.01598980 </v>
    <i name="Tr[quadrupol]">      1.01148410 </i>
    <i name="Echarged">      0.00000000 </i>
    <i name="Edipol_quadrupol">      0.00000000 </i>
    <i name="Eion">      0.00000000 </i>
   </dipole>
   <energy>
    <i name="e_fr_energy">    -14.34038038 </i>
    <i name="e_wo_entrp">    -14.34488567 </i>
    <i name="e_0_energy">    -14.34188214 </i>
   </energy>
  </scstep>
  <scstep>
   <time name="dav">    1.69    1.70</time>
   <time name="total">    3.12    3.13</time>
   <dipole>
    <v name="dipole">      0.00000000       0.00000000       0.01612581 </v>
    <i name="Tr[quadrupol]">      1.01913221 </i>
    <i name="Echarged">      0.00000000 </i>
    <i name="Edipol_quadrupol">      0.00000000 </i>
    <i name="Eion">      0.00000000 </i>
   </dipole>
   <energy>
    <i name="e_fr_energy">    -14.37621011 </i>
    <i name="e_wo_entrp">    -14.38220257 </i>
    <i name="e_0_energy">    -14.37820759 </i>
   </energy>
  </scstep>
  <scstep>
   <time name="dav">    1.72    1.72</time>
   <time name="total">    3.11    3.11</time>
   <dipole>
    <v name="dipole">      0.00000000       0.00000000       0.01636672 </v>
    <i name="Tr[quadrupol]">      1.03069192 </i>
    <i name="Echarged">      0.00000000 </i>
    <i name="Edipol_quadrupol">      0.00000000 </i>
    <i name="Eion">      0.00000000 </i>
   </dipole>
   <energy>
    <i name="e_fr_energy">    -14.44303653 </i>
    <i name="e_wo_entrp">    -14.44804307 </i>
    <i name="e_0_energy">    -14.44470537 </i>
   </energy>
  </scstep>
  <scstep>
   <time name="dav">    1.65    1.65</time>
   <time name="total">    3.09    3.09</time>
   <dipole>
    <v name="dipole">      0.00000000       0.00000000       0.01677108 </v>
    <i name="Tr[quadrupol]">      1.03977341 </i>
    <i name="Echarged">      0.00000000 </i>
    <i name="Edipol_quadrupol">      0.00000000 </i>
    <i name="Eion">      0.00000000 </i>
   </dipole>
   <energy>
    <i name="e_fr_energy">    -14.48395504 </i>
    <i name="e_wo_entrp">    -14.48931605 </i>
    <i name="e_0_energy">    -14.48574204 </i>
   </energy>
  </scstep>
  <scstep>
   <time name="dav">    1.67    1.67</time>
   <time name="total">    3.13    3.14</time>
   <dipole>
    <v name="dipole">      0.00000000       0.00000000       0.01700262 </v>
    <i name="Tr[quadrupol]">      1.04546664 </i>
    <i name="Echarged">      0.00000000 </i>
    <i name="Edipol_quadrupol">      0.00000000 </i>
    <i name="Eion">      0.00000000 </i>
   </dipole>
   <energy>
    <i name="e_fr_energy">    -14.49143424 </i>
    <i name="e_wo_entrp">    -14.49694821 </i>
    <i name="e_0_energy">    -14.49327223 </i>
   </energy>
  </scstep>
  <scstep>
   <time name="dav">    1.60    1.60</time>
   <time name="total">    3.06    3.06</time>
   <dipole>
    <v name="dipole">      0.00000000       0.00000000       0.01722373 </v>
    <i name="Tr[quadrupol]">      1.05167273 </i>
    <i name="Echarged">      0.00000000 </i>
    <i name="Edipol_quadrupol">      0.00000000 </i>
    <i name="Eion">      0.00000000 </i>
   </dipole>
   <energy>
    <i name="e_fr_energy">    -14.49291399 </i>
    <i name="e_wo_entrp">    -14.49834756 </i>
    <i name="e_0_energy">    -14.49472518 </i>
   </energy>
  </scstep>
  <scstep>
   <time name="dav">    1.70    1.70</time>
   <time name="total">    2.90    2.91</time>
   <dipole>
    <v name="dipole">      0.00000000       0.00000000       0.01766125 </v>
    <i name="Tr[quadrupol]">      1.06495903 </i>
    <i name="Echarged">      0.00000000 </i>
    <i name="Edipol_quadrupol">      0.00000000 </i>
    <i name="Eion">      0.00000000 </i>
   </dipole>
   <energy>
    <i name="alphaZ">      0.24186111 </i>
    <i name="ewald">    122.18749565 </i>
    <i name="hartreedc">   -607.04326999 </i>
    <i name="XCdc">     39.87111300 </i>
    <i name="pawpsdc">    732.30716141 </i>
    <i name="pawaedc">   -734.70990121 </i>
    <i name="eentropy">      0.00544720 </i>
    <i name="bandstr">   -146.85772918 </i>
    <i name="atom">    579.50485627 </i>
    <i name="e_fr_energy">    -14.49296573 </i>
    <i name="e_wo_entrp">    -14.49841293 </i>
    <i name="e_0_energy">    -14.49478146 </i>
   </energy>
  </scstep>
  <structure>
   <crystal>
    <varray name="basis" >
     <v>      10.16000000       0.00000000       0.00000000 </v>
     <v>       0.00000000      11.76000000       0.00000000 </v>
     <v>       0.00000000       0.00000000      15.00000000 </v>
    </varray>
    <i name="volume">   1792.22400000 </i>
    <varray name="rec_basis" >
     <v>       0.09842520       0.00000000       0.00000000 </v>
     <v>       0.00000000       0.08503401       0.00000000 </v>
     <v>       0.00000000       0.00000000       0.06666667 </v>
    </varray>
   </crystal>
   <varray name="positions" >
    <v>       0.00000000       0.00000000       0.00000000 </v>
    <v>       0.00000000       0.00000000       0.08130000 </v>
   </varray>
  </structure>
  <varray name="forces" >
   <v>       0.00000000       0.00000000       6.63571290 </v>
   <v>       0.00000000       0.00000000      -6.63571290 </v>
  </varray>
  <varray name="stress" >
   <v>       0.02477839       0.00000000       0.00000000 </v>
   <v>       0.00000000      -0.00392241       0.00000000 </v>
   <v>       0.00000000       0.00000000      -7.21222945 </v>
  </varray>
  <energy>
   <i name="e_fr_energy">    -14.49296573 </i>
   <i name="e_wo_entrp">    -14.49478146 </i>
   <i name="e_0_energy">      0.00544720 </i>
  </energy>
  <time name="totalsc">   54.62   54.89</time>
 </calculation>
 <calculation>
  <scstep>
   <time name="dav">    1.62    1.62</time>
   <time name="total">    3.04    3.04</time>
   <dipole>
    <v name="dipole">      0.00000000       0.00000000       0.01794243 </v>
    <i name="Tr[quadrupol]">      1.07178719 </i>
    <i name="Echarged">      0.00000000 </i>
    <i name="Edipol_quadrupol">      0.00000000 </i>
    <i name="Eion">      0.00000000 </i>
   </dipole>
   <energy>
    <i name="alphaZ">      0.24300661 </i>
    <i name="ewald">    435.39599607 </i>
    <i name="hartreedc">   -710.07776308 </i>
    <i name="XCdc">     43.24660680 </i>
    <i name="pawpsdc">    732.32541628 </i>
    <i name="pawaedc">   -734.72812599 </i>
    <i name="eentropy">      0.00488756 </i>
    <i name="bandstr">   -275.08985931 </i>
    <i name="atom">    579.50485627 </i>
    <i name="e_fr_energy">     70.82502120 </i>
    <i name="e_wo_entrp">     70.82013364 </i>
    <i name="e_0_energy">     70.82339201 </i>
   </energy>
  </scstep>
  <scstep>
   <time name="dav">    1.90    1.90</time>
   <time name="total">    3.21    3.21</time>
   <dipole>
    <v name="dipole">      0.00000000       0.00000000      -0.00826849 </v>
    <i name="Tr[quadrupol]">      1.07706148 </i>
    <i name="Echarged">      0.00000000 </i>
    <i name="Edipol_quadrupol">      0.00000000 </i>
    <i name="Eion">      0.00000000 </i>
   </dipole>
   <energy>
    <i name="e_fr_energy">     74.82179421 </i>
    <i name="e_wo_entrp">     74.81657519 </i>
    <i name="e_0_energy">     74.82005454 </i>
   </energy>
  </scstep>
  <scstep>
   <time name="dav">    1.58    1.66</time>
   <time name="total">    3.06    3.14</time>
   <dipole>
    <v name="dipole">      0.00000000       0.00000000      -0.17373497 </v>
    <i name="Tr[quadrupol]">      0.88378308 </i>
    <i name="Echarged">      0.00000000 </i>
    <i name="Edipol_quadrupol">      0.00000000 </i>
    <i name="Eion">      0.00000000 </i>
   </dipole>
   <energy>
    <i name="e_fr_energy">      3.67113300 </i>
    <i name="e_wo_entrp">      3.66724326 </i>
    <i name="e_0_energy">      3.66983642 </i>
   </energy>
  </scstep>
  <scstep>
   <time name="dav">    2.57    2.57</time>
   <time name="total">    3.93    3.96</time>
   <dipole>
    <v name="dipole">      0.00000000       0.00000000       0.01363914 </v>
    <i name="Tr[quadrupol]">      1.37111449 </i>
    <i name="Echarged">      0.00000000 </i>
    <i name="Edipol_quadrupol">      0.00000000 </i>
    <i name="Eion">      0.00000000 </i>
   </dipole>
   <energy>
    <i name="e_fr_energy">     78.40395774 </i>
    <i name="e_wo_entrp">     78.40234680 </i>
    <i name="e_0_energy">     78.40342076 </i>
   </energy>
  </scstep>
  <scstep>
   <time name="dav">    1.63    1.63</time>
   <time name="total">    3.01    3.01</time>
   <dipole>
    <v name="dipole">      0.00000000       0.00000000       0.02040285 </v>
    <i name="Tr[quadrupol]">      1.46885549 </i>
    <i name="Echarged">      0.00000000 </i>
    <i name="Edipol_quadrupol">      0.00000000 </i>
    <i name="Eion">      0.00000000 </i>
   </dipole>
   <energy>
    <i name="e_fr_energy">     77.44467201 </i>
    <i name="e_wo_entrp">     77.43875146 </i>
    <i name="e_0_energy">     77.44269849 </i>
   </energy>
  </scstep>
  <scstep>
   <time name="dav">    2.16    2.16</time>
   <time name="total">    3.53    3.53</time>
   <dipole>
    <v name="dipole">      0.00000000       0.00000000       0.00818654 </v>
    <i name="Tr[quadrupol]">      1.44489090 </i>
    <i name="Echarged">      0.00000000 </i>
    <i name="Edipol_quadrupol">      0.00000000 </i>
    <i name="Eion">      0.00000000 </i>
   </dipole>
   <energy>
    <i name="e_fr_energy">     77.73929278 </i>
    <i name="e_wo_entrp">     77.73284130 </i>
    <i name="e_0_energy">     77.73714229 </i>
   </energy>
  </scstep>
  <scstep>
   <time name="dav">    1.67    1.67</time>
   <time name="total">    3.02    3.02</time>
   <dipole>
    <v name="dipole">      0.00000000       0.00000000       0.00027447 </v>
    <i name="Tr[quadrupol]">      1.42677583 </i>
    <i name="Echarged">      0.00000000 </i>
    <i name="Edipol_quadrupol">      0.00000000 </i>
    <i name="Eion">      0.00000000 </i>
   </dipole>
   <energy>
    <i name="e_fr_energy">     77.78200613 </i>
    <i name="e_wo_entrp">     77.77689543 </i>
    <i name="e_0_energy">     77.78030256 </i>
   </energy>
  </scstep>
  <scstep>
   <time name="dav">    1.70    1.70</time>
   <time name="total">    3.10    3.10</time>
   <dipole>
    <v name="dipole">      0.00000000       0.00000000      -0.00739284 </v>
    <i name="Tr[quadrupol]">      1.41054375 </i>
    <i name="Echarged">      0.00000000 </i>
    <i name="Edipol_quadrupol">      0.00000000 </i>
    <i name="Eion">      0.00000000 </i>
   </dipole>
   <energy>
    <i name="e_fr_energy">     77.80438036 </i>
    <i name="e_wo_entrp">     77.79819274 </i>
    <i name="e_0_energy">     77.80231782 </i>
   </energy>
  </scstep>
  <scstep>
   <time name="dav">    1.60    1.60</time>
   <time name="total">    2.98    2.98</time>
   <dipole>
    <v name="dipole">      0.00000000       0.00000000      -0.04335226 </v>
    <i name="Tr[quadrupol]">      1.34463364 </i>
    <i name="Echarged">      0.00000000 </i>
    <i name="Edipol_quadrupol">      0.00000000 </i>
    <i name="Eion">      0.00000000 </i>
   </dipole>
   <energy>
    <i name="e_fr_energy">     77.88454150 </i>
    <i name="e_wo_entrp">     77.87820148 </i>
    <i name="e_0_energy">     77.88242816 </i>
   </energy>
  </scstep>
  <scstep>
   <time name="dav">    1.69    1.69</time>
   <time name="total">    3.12    3.12</time>
   <dipole>
    <v name="dipole">      0.00000000       0.00000000      -0.06551272 </v>
    <i name="Tr[quadrupol]">      1.31631740 </i>
    <i name="Echarged">      0.00000000 </i>
    <i name="Edipol_quadrupol">      0.00000000 </i>
    <i name="Eion">      0.00000000 </i>
   </dipole>
   <energy>
    <i name="e_fr_energy">     77.89945674 </i>
    <i name="e_wo_entrp">     77.89640934 </i>
    <i name="e_0_energy">     77.89844094 </i>
   </energy>
  </scstep>
  <scstep>
   <time name="dav">    1.53    1.53</time>
   <time name="total">    2.95    2.96</time>
   <dipole>
    <v name="dipole">      0.00000000       0.00000000      -0.08136611 </v>
    <i name="Tr[quadrupol]">      1.30884746 </i>
    <i name="Echarged">      0.00000000 </i>
    <i name="Edipol_quadrupol">      0.00000000 </i>
    <i name="Eion">      0.00000000 </i>
   </dipole>
   <energy>
    <i name="e_fr_energy">     77.89814031 </i>
    <i name="e_wo_entrp">     77.89419028 </i>
    <i name="e_0_energy">     77.89682363 </i>
   </energy>
  </scstep>
  <scstep>
   <time name="dav">    1.68    1.78</time>
   <time name="total">    3.12    3.22</time>
   <dipole>
    <v name="dipole">      0.00000000       0.00000000      -0.10079925 </v>
    <i name="Tr[quadrupol]">      1.29244972 </i>
    <i name="Echarged">      0.00000000 </i>
    <i name="Edipol_quadrupol">      0.00000000 </i>
    <i name="Eion">      0.00000000 </i>
   </dipole>
   <energy>
    <i name="e_fr_energy">     77.89855769 </i>
    <i name="e_wo_entrp">     77.89228363 </i>
    <i name="e_0_energy">     77.89646634 </i>
   </energy>
  </scstep>
  <scstep>
   <time name="dav">    1.53    1.53</time>
   <time name="total">    2.96    2.98</time>
   <dipole>
    <v name="dipole">      0.00000000       0.00000000      -0.11894380 </v>
    <i name="Tr[quadrupol]">      1.27668263 </i>
    <i name="Echarged">      0.00000000 </i>
    <i name="Edipol_quadrupol">      0.00000000 </i>
    <i name="Eion">      0.00000000 </i>
   </dipole>
   <energy>
    <i name="e_fr_energy">     77.89940799 </i>
    <i name="e_wo_entrp">     77.89497497 </i>
    <i name="e_0_energy">     77.89793031 </i>
   </energy>
  </scstep>
  <scstep>
   <time name="dav">    1.63    1.63</time>
   <time name="total">    3.07    3.09</time>
   <dipole>
    <v name="dipole">      0.00000000       0.00000000      -0.14214909 </v>
    <i name="Tr[quadrupol]">      1.25439418 </i>
    <i name="Echarged">      0.00000000 </i>
    <i name="Edipol_quadrupol">      0.00000000 </i>
    <i name="Eion">      0.00000000 </i>
   </dipole>
   <energy>
    <i name="e_fr_energy">     77.89722798 </i>
    <i name="e_wo_entrp">     77.89173747 </i>
    <i name="e_0_energy">     77.89539781 </i>
   </energy>
  </scstep>
  <scstep>
   <time name="dav">    1.59    1.59</time>
   <time name="total">    3.02    3.05</time>
   <dipole>
    <v name="dipole">      0.00000000       0.00000000      -0.17533923 </v>
    <i name="Tr[quadrupol]">      1.22408030 </i>
    <i name="Echarged">      0.00000000 </i>
    <i name="Edipol_quadrupol">      0.00000000 </i>
    <i name="Eion">      0.00000000 </i>
   </dipole>
   <energy>
    <i name="e_fr_energy">     77.89469574 </i>
    <i name="e_wo_entrp">     77.88934264 </i>
    <i name="e_0_energy">     77.89291138 </i>
   </energy>
  </scstep>
  <scstep>
   <time name="dav">    1.69    1.69</time>
   <time name="total">    3.08    3.11</time>
   <dipole>
    <v name="dipole">      0.00000000       0.00000000      -0.20054530 </v>
    <i name="Tr[quadrupol]">      1.19969439 </i>
    <i name="Echarged">      0.00000000 </i>
    <i name="Edipol_quadrupol">      0.00000000 </i>
    <i name="Eion">      0.00000000 </i>
   </dipole>
   <energy>
    <i name="e_fr_energy">     77.89360430 </i>
    <i name="e_wo_entrp">     77.88800068 </i>
    <i name="e_0_energy">     77.89173643 </i>
   </energy>
  </scstep>
  <scstep>
   <time name="dav">    1.70    1.70</time>
   <time name="total">    3.13    3.16</time>
   <dipole>
    <v name="dipole">      0.00000000       0.00000000      -0.22110205 </v>
    <i name="Tr[quadrupol]">      1.18060062 </i>
    <i name="Echarged">      0.00000000 </i>
    <i name="Edipol_quadrupol">      0.00000000 </i>
    <i name="Eion">      0.00000000 </i>
   </dipole>
   <energy>
    <i name="e_fr_energy">     77.89285959 </i>
    <i name="e_wo_entrp">     77.88737677 </i>
    <i name="e_0_energy">     77.89103199 </i>
   </energy>
  </scstep>
  <scstep>
   <time name="dav">    1.94    1.94</time>
   <time name="total">    3.37    3.39</time>
   <dipole>
    <v name="dipole">      0.00000000       0.00000000      -0.24131132 </v>
    <i name="Tr[quadrupol]">      1.16434249 </i>
    <i name="Echarged">      0.00000000 </i>
    <i name="Edipol_quadrupol">      0.00000000 </i>
    <i name="Eion">      0.00000000 </i>
   </dipole>
   <energy>
    <i name="e_fr_energy">     77.89176061 </i>
    <i name="e_wo_entrp">     77.88624637 </i>
    <i name="e_0_energy">     77.88992253 </i>
   </energy>
  </scstep>
  <scstep>
   <time name="dav">    1.90    1.90</time>
   <time name="total">    3.31    3.34</time>
   <dipole>
    <v name="dipole">      0.00000000       0.00000000      -0.24855694 </v>
    <i name="Tr[quadrupol]">      1.20421268 </i>
    <i name="Echarged">      0.00000000 </i>
    <i name="Edipol_quadrupol">      0.00000000 </i>
    <i name="Eion">      0.00000000 </i>
   </dipole>
   <energy>
    <i name="e_fr_energy">     77.89138289 </i>
    <i name="e_wo_entrp">     77.88598987 </i>
    <i name="e_0_energy">     77.88958522 </i>
   </energy>
  </scstep>
  <scstep>
   <time name="dav">    1.83    1.83</time>
   <time name="total">    3.30    3.32</time>
   <dipole>
    <v name="dipole">      0.00000000       0.00000000      -0.25419712 </v>
    <i name="Tr[quadrupol]">      1.20223492 </i>
    <i name="Echarged">      0.00000000 </i>
    <i name="Edipol_quadrupol">      0.00000000 </i>
    <i name="Eion">      0.00000000 </i>
   </dipole>
   <energy>
    <i name="e_fr_energy">     77.89115722 </i>
    <i name="e_wo_entrp">     77.88571352 </i>
    <i name="e_0_energy">     77.88934265 </i>
   </energy>
  </scstep>
  <scstep>
   <time name="dav">    1.76    1.76</time>
   <time name="total">    3.17    3.20</time>
   <dipole>
    <v name="dipole">      0.00000000       0.00000000      -0.26034753 </v>
    <i name="Tr[quadrupol]">      1.24676085 </i>
    <i name="Echarged">      0.00000000 </i>
    <i name="Edipol_quadrupol">      0.00000000 </i>
    <i name="Eion">      0.00000000 </i>
   </dipole>
   <energy>
    <i name="e_fr_energy">     77.89101981 </i>
    <i name="e_wo_entrp">     77.88554692 </i>
    <i name="e_0_energy">     77.88919551 </i>
   </energy>
  </scstep>
  <scstep>
   <time name="dav">    1.82    1.82</time>
   <time name="total">    3.00    3.03</time>
   <dipole>
    <v name="dipole">      0.00000000       0.00000000      -0.26186105 </v>
    <i name="Tr[quadrupol]">      1.29348547 </i>
    <i name="Echarged">      0.00000000 </i>
    <i name="Edipol_quadrupol">      0.00000000 </i>
    <i name="Eion">      0.00000000 </i>
   </dipole>
   <energy>
    <i name="alphaZ">      0.10804304 </i>
    <i name="ewald">    435.39599607 </i>
    <i name="hartreedc">   -793.42951083 </i>
    <i name="XCdc">     47.39656919 </i>
    <i name="pawpsdc">  45803.09560398 </i>
    <i name="pawaedc"> -45808.37990907 </i>
    <i name="eentropy">      0.00548045 </i>
    <i name="bandstr">   -185.80613734 </i>
    <i name="atom">    579.50485627 </i>
    <i name="e_fr_energy">     77.89099176 </i>
    <i name="e_wo_entrp">     77.88551131 </i>
    <i name="e_0_energy">     77.88916494 </i>
   </energy>
  </scstep>
  <structure>
   <crystal>
    <varray name="basis" >
     <v>      10.16000000       0.00000000       0.00000000 </v>
     <v>       0.00000000      11.76000000       0.00000000 </v>
     <v>       0.00000000       0.00000000      15.00000000 </v>
    </varray>
    <i name="volume">   1792.22400000 </i>
    <varray name="rec_basis" >
     <v>       0.09842520       0.00000000       0.00000000 </v>
     <v>       0.00000000       0.08503401       0.00000000 </v>
     <v>       0.00000000       0.00000000       0.06666667 </v>
    </varray>
   </crystal>
   <varray name="positions" >
    <v>       0.00000000       0.00000000       0.02134163 </v>
    <v>       0.00000000       0.00000000       0.05995837 </v>
   </varray>
  </structure>
  <varray name="forces" >
   <v>       0.00000000       0.00000000    -635.24739330 </v>
   <v>       0.00000000       0.00000000     635.24739330 </v>
  </varray>
  <varray name="stress" >
   <v>      -0.09367391       0.00000000       0.00000000 </v>
   <v>       0.00000000      -0.11095129       0.00000000 </v>
   <v>       0.00000000       0.00000000     328.76105125 </v>
  </varray>
  <energy>
   <i name="e_fr_energy">     77.89099176 </i>
   <i name="e_wo_entrp">     77.88916494 </i>
   <i name="e_0_energy">      0.00548045 </i>
  </energy>
  <time name="totalsc">   74.37   74.93</time>
 </calculation>
 <calculation>
  <scstep>
   <time name="dav">    1.53    1.53</time>
   <time name="total">    2.90    2.91</time>
   <dipole>
    <v name="dipole">      0.00000000       0.00000000      -0.26455845 </v>
    <i name="Tr[quadrupol]">      1.43535374 </i>
    <i name="Echarged">      0.00000000 </i>
    <i name="Edipol_quadrupol">      0.00000000 </i>
    <i name="Eion">      0.00000000 </i>
   </dipole>
   <energy>
    <i name="alphaZ">      0.05118967 </i>
    <i name="ewald">    123.73356273 </i>
    <i name="hartreedc">   -666.01667074 </i>
    <i name="XCdc">     43.14488200 </i>
    <i name="pawpsdc">  45801.64933619 </i>
    <i name="pawaedc"> -45806.93378655 </i>
    <i name="eentropy">      0.00635099 </i>
    <i name="bandstr">    -97.73405237 </i>
    <i name="atom">    579.50485627 </i>
    <i name="e_fr_energy">    -22.59433182 </i>
    <i name="e_wo_entrp">    -22.60068281 </i>
    <i name="e_0_energy">    -22.59644881 </i>
   </energy>
  </scstep>
  <scstep>
   <time name="dav">    1.79    1.79</time>
   <time name="total">    3.15    3.17</time>
   <dipole>
    <v name="dipole">      0.00000000       0.00000000      -0.24649417 </v>
    <i name="Tr[quadrupol]">      1.43532719 </i>
    <i name="Echarged">      0.00000000 </i>
    <i name="Edipol_quadrupol">      0.00000000 </i>
    <i name="Eion">      0.00000000 </i>
   </dipole>
   <energy>
    <i name="e_fr_energy">    -16.35418069 </i>
    <i name="e_wo_entrp">    -16.35805992 </i>
    <i name="e_0_energy">    -16.35547377 </i>
   </energy>
  </scstep>
  <scstep>
   <time name="dav">    2.16    2.16</time>
   <time name="total">    3.54    3.56</time>
   <dipole>
    <v name="dipole">      0.00000000       0.00000000      -0.12370746 </v>
    <i name="Tr[quadrupol]">      1.32708977 </i>
    <i name="Echarged">      0.00000000 </i>
    <i name="Edipol_quadrupol">      0.00000000 </i>
    <i name="Eion">      0.00000000 </i>
   </dipole>
   <energy>
    <i name="e_fr_energy">    -15.53733410 </i>
    <i name="e_wo_entrp">    -15.54133926 </i>
    <i name="e_0_energy">    -15.53866915 </i>
   </energy>
  </scstep>
  <scstep>
   <time name="dav">    1.57    1.57</time>
   <time name="total">    2.91    2.95</time>
   <dipole>
    <v name="dipole">      0.00000000       0.00000000      -0.15587079 </v>
    <i name="Tr[quadrupol]">      1.34913375 </i>
    <i name="Echarged">      0.00000000 </i>
    <i name="Edipol_quadrupol">      0.00000000 </i>
    <i name="Eion">      0.00000000 </i>
   </dipole>
   <energy>
    <i name="e_fr_energy">    -14.63689760 </i>
    <i name="e_wo_entrp">    -14.64299892 </i>
    <i name="e_0_energy">    -14.63893137 </i>
   </energy>
  </scstep>
  <scstep>
   <time name="dav">    2.03    2.03</time>
   <time name="total">    3.42    3.45</time>
   <dipole>
    <v name="dipole">      0.00000000       0.00000000      -0.13707436 </v>
    <i name="Tr[quadrupol]">      1.28063028 </i>
    <i name="Echarged">      0.00000000 </i>
    <i name="Edipol_quadrupol">      0.00000000 </i>
    <i name="Eion">      0.00000000 </i>
   </dipole>
   <energy>
    <i name="e_fr_energy">    -14.53612151 </i>
    <i name="e_wo_entrp">    -14.54053319 </i>
    <i name="e_0_energy">    -14.53759207 </i>
   </energy>
  </scstep>
  <scstep>
   <time name="dav">    1.70    1.70</time>
   <time name="total">    3.07    3.10</time>
   <dipole>
    <v name="dipole">      0.00000000       0.00000000      -0.12376429 </v>
    <i name="Tr[quadrupol]">      1.23586567 </i>
    <i name="Echarged">      0.00000000 </i>
    <i name="Edipol_quadrupol">      0.00000000 </i>
    <i name="Eion">      0.00000000 </i>
   </dipole>
   <energy>
    <i name="e_fr_energy">    -14.52768929 </i>
    <i name="e_wo_entrp">    -14.53381345 </i>
    <i name="e_0_energy">    -14.52973067 </i>
   </energy>
  </scstep>
  <scstep>
   <time name="dav">    1.93    1.93</time>
   <time name="total">    3.42    3.49</time>
   <dipole>
    <v name="dipole">      0.00000000       0.00000000      -0.11523411 </v>
    <i name="Tr[quadrupol]">      1.22568480 </i>
    <i name="Echarged">      0.00000000 </i>
    <i name="Edipol_quadrupol">      0.00000000 </i>
    <i name="Eion">      0.00000000 </i>
   </dipole>
   <energy>
    <i name="e_fr_energy">    -14.53010366 </i>
    <i name="e_wo_entrp">    -14.53565642 </i>
    <i name="e_0_energy">    -14.53195458 </i>
   </energy>
  </scstep>
  <scstep>
   <time name="dav">    1.67    1.68</time>
   <time name="total">    3.05    3.06</time>
   <dipole>
    <v name="dipole">      0.00000000       0.00000000      -0.09886046 </v>
    <i name="Tr[quadrupol]">      1.18992265 </i>
    <i name="Echarged">      0.00000000 </i>
    <i name="Edipol_quadrupol">      0.00000000 </i>
    <i name="Eion">      0.00000000 </i>
   </dipole>
   <energy>
    <i name="e_fr_energy">    -14.53123837 </i>
    <i name="e_wo_entrp">    -14.53600681 </i>
    <i name="e_0_energy">    -14.53282785 </i>
   </energy>
  </scstep>
  <scstep>
   <time name="dav">    1.73    1.73</time>
   <time name="total">    3.00    3.01</time>
   <dipole>
    <v name="dipole">      0.00000000       0.00000000      -0.09346883 </v>
    <i name="Tr[quadrupol]">      1.18512315 </i>
    <i name="Echarged">      0.00000000 </i>
    <i name="Edipol_quadrupol">      0.00000000 </i>
    <i name="Eion">      0.00000000 </i>
   </dipole>
   <energy>
    <i name="e_fr_energy">    -14.53239210 </i>
    <i name="e_wo_entrp">    -14.53801768 </i>
    <i name="e_0_energy">    -14.53426729 </i>
   </energy>
  </scstep>
  <scstep>
   <time name="dav">    1.69    1.69</time>
   <time name="total">    3.10    3.11</time>
   <dipole>
    <v name="dipole">      0.00000000       0.00000000      -0.07648785 </v>
    <i name="Tr[quadrupol]">      1.15680537 </i>
    <i name="Echarged">      0.00000000 </i>
    <i name="Edipol_quadrupol">      0.00000000 </i>
    <i name="Eion">      0.00000000 </i>
   </dipole>
   <energy>
    <i name="e_fr_energy">    -14.53382472 </i>
    <i name="e_wo_entrp">    -14.53916996 </i>
    <i name="e_0_energy">    -14.53560647 </i>
   </energy>
  </scstep>
  <scstep>
   <time name="dav">    1.67    1.67</time>
   <time name="total">    3.04    3.04</time>
   <dipole>
    <v name="dipole">      0.00000000       0.00000000      -0.05580676 </v>
    <i name="Tr[quadrupol]">      1.13304388 </i>
    <i name="Echarged">      0.00000000 </i>
    <i name="Edipol_quadrupol">      0.00000000 </i>
    <i name="Eion">      0.00000000 </i>
   </dipole>
   <energy>
    <i name="e_fr_energy">    -14.53485633 </i>
    <i name="e_wo_entrp">    -14.54048401 </i>
    <i name="e_0_energy">    -14.53673222 </i>
   </energy>
  </scstep>
  <scstep>
   <time name="dav">    1.69    1.69</time>
   <time name="total">    3.10    3.11</time>
   <dipole>
    <v name="dipole">      0.00000000       0.00000000      -0.03580207 </v>
    <i name="Tr[quadrupol]">      1.12267670 </i>
    <i name="Echarged">      0.00000000 </i>
    <i name="Edipol_quadrupol">      0.00000000 </i>
    <i name="Eion">      0.00000000 </i>
   </dipole>
   <energy>
    <i name="e_fr_energy">    -14.53533171 </i>
    <i name="e_wo_entrp">    -14.54077802 </i>
    <i name="e_0_energy">    -14.53714715 </i>
   </energy>
  </scstep>
  <scstep>
   <time name="dav">    1.57    1.57</time>
   <time name="total">    2.96    2.96</time>
   <dipole>
    <v name="dipole">      0.00000000       0.00000000      -0.01478620 </v>
    <i name="Tr[quadrupol]">      1.10946380 </i>
    <i name="Echarged">      0.00000000 </i>
    <i name="Edipol_quadrupol">      0.00000000 </i>
    <i name="Eion">      0.00000000 </i>
   </dipole>
   <energy>
    <i name="e_fr_energy">    -14.53555602 </i>
    <i name="e_wo_entrp">    -14.54090618 </i>
    <i name="e_0_energy">    -14.53733941 </i>
   </energy>
  </scstep>
  <scstep>
   <time name="dav">    1.61    1.61</time>
   <time name="total">    2.96    2.97</time>
   <dipole>
    <v name="dipole">      0.00000000       0.00000000      -0.00566907 </v>
    <i name="Tr[quadrupol]">      1.10578335 </i>
    <i name="Echarged">      0.00000000 </i>
    <i name="Edipol_quadrupol">      0.00000000 </i>
    <i name="Eion">      0.00000000 </i>
   </dipole>
   <energy>
    <i name="e_fr_energy">    -14.53573807 </i>
    <i name="e_wo_entrp">    -14.54120081 </i>
    <i name="e_0_energy">    -14.53755898 </i>
   </energy>
  </scstep>
  <scstep>
   <time name="dav">    1.62    1.62</time>
   <time name="total">    3.02    3.02</time>
   <dipole>
    <v name="dipole">      0.00000000       0.00000000       0.00057508 </v>
    <i name="Tr[quadrupol]">      1.10289095 </i>
    <i name="Echarged">      0.00000000 </i>
    <i name="Edipol_quadrupol">      0.00000000 </i>
    <i name="Eion">      0.00000000 </i>
   </dipole>
   <energy>
    <i name="e_fr_energy">    -14.53597532 </i>
    <i name="e_wo_entrp">    -14.54140119 </i>
    <i name="e_0_energy">    -14.53778394 </i>
   </energy>
  </scstep>
  <scstep>
   <time name="dav">    1.60    1.60</time>
   <time name="total">    3.02    3.02</time>
   <dipole>
    <v name="dipole">      0.00000000       0.00000000       0.00893875 </v>
    <i name="Tr[quadrupol]">      1.09878261 </i>
    <i name="Echarged">      0.00000000 </i>
    <i name="Edipol_quadrupol">      0.00000000 </i>
    <i name="Eion">      0.00000000 </i>
   </dipole>
   <energy>
    <i name="e_fr_energy">    -14.53616085 </i>
    <i name="e_wo_entrp">    -14.54161024 </i>
    <i name="e_0_energy">    -14.53797731 </i>
   </energy>
  </scstep>
  <scstep>
   <time name="dav">    1.58    1.58</time>
   <time name="total">    2.80    2.80</time>
   <dipole>
    <v name="dipole">      0.00000000       0.00000000       0.01128377 </v>
    <i name="Tr[quadrupol]">      1.09754664 </i>
    <i name="Echarged">      0.00000000 </i>
    <i name="Edipol_quadrupol">      0.00000000 </i>
    <i name="Eion">      0.00000000 </i>
   </dipole>
   <energy>
    <i name="alphaZ">      0.24257527 </i>
    <i name="ewald">    123.73356273 </i>
    <i name="hartreedc">   -608.32968947 </i>
    <i name="XCdc">     39.91497514 </i>
    <i name="pawpsdc">    740.75961514 </i>
    <i name="pawaedc">   -743.16887592 </i>
    <i name="eentropy">      0.00544479 </i>
    <i name="bandstr">   -147.19863973 </i>
    <i name="atom">    579.50485627 </i>
    <i name="e_fr_energy">    -14.53617579 </i>
    <i name="e_wo_entrp">    -14.54162058 </i>
    <i name="e_0_energy">    -14.53799072 </i>
   </energy>
  </scstep>
  <structure>
   <crystal>
    <varray name="basis" >
     <v>      10.16000000       0.00000000       0.00000000 </v>
     <v>       0.00000000      11.76000000       0.00000000 </v>
     <v>       0.00000000       0.00000000      15.00000000 </v>
    </varray>
    <i name="volume">   1792.22400000 </i>
    <varray name="rec_basis" >
     <v>       0.09842520       0.00000000       0.00000000 </v>
     <v>       0.00000000       0.08503401       0.00000000 </v>
     <v>       0.00000000       0.00000000       0.06666667 </v>
    </varray>
   </crystal>
   <varray name="positions" >
    <v>       0.00000000       0.00000000       0.00022063 </v>
    <v>       0.00000000       0.00000000       0.08107937 </v>
   </varray>
  </structure>
  <varray name="forces" >
   <v>       0.00000000       0.00000000       6.18577988 </v>
   <v>       0.00000000       0.00000000      -6.18577988 </v>
  </varray>
  <varray name="stress" >
   <v>       0.00211858       0.00000000       0.00000000 </v>
   <v>       0.00000000      -0.02820275       0.00000000 </v>
   <v>       0.00000000       0.00000000      -6.74951532 </v>
  </varray>
  <energy>
   <i name="e_fr_energy">    -14.53617579 </i>
   <i name="e_wo_entrp">    -14.53799072 </i>
   <i name="e_0_energy">      0.00544479 </i>
  </energy>
  <time name="totalsc">   57.56   57.88</time>
 </calculation>
 <calculation>
  <scstep>
   <time name="dav">    1.59    1.59</time>
   <time name="total">    2.92    2.93</time>
   <dipole>
    <v name="dipole">      0.00000000       0.00000000       0.01290818 </v>
    <i name="Tr[quadrupol]">      1.09662539 </i>
    <i name="Echarged">      0.00000000 </i>
    <i name="Edipol_quadrupol">      0.00000000 </i>
    <i name="Eion">      0.00000000 </i>
   </dipole>
   <energy>
    <i name="alphaZ">      0.24240489 </i>
    <i name="ewald">    125.17596448 </i>
    <i name="hartreedc">   -609.23667283 </i>
    <i name="XCdc">     39.93975772 </i>
    <i name="pawpsdc">    740.74969088 </i>
    <i name="pawaedc">   -743.15891829 </i>
    <i name="eentropy">      0.00541917 </i>
    <i name="bandstr">   -147.79527215 </i>
    <i name="atom">    579.50485627 </i>
    <i name="e_fr_energy">    -14.57276987 </i>
    <i name="e_wo_entrp">    -14.57818904 </i>
    <i name="e_0_energy">    -14.57457626 </i>
   </energy>
  </scstep>
  <scstep>
   <time name="dav">    1.70    1.70</time>
   <time name="total">    3.05    3.06</time>
   <dipole>
    <v name="dipole">      0.00000000       0.00000000       0.01243774 </v>
    <i name="Tr[quadrupol]">      1.09867970 </i>
    <i name="Echarged">      0.00000000 </i>
    <i name="Edipol_quadrupol">      0.00000000 </i>
    <i name="Eion">      0.00000000 </i>
   </dipole>
   <energy>
    <i name="e_fr_energy">    -14.57277343 </i>
    <i name="e_wo_entrp">    -14.57824859 </i>
    <i name="e_0_energy">    -14.57459848 </i>
   </energy>
  </scstep>
  <scstep>
   <time name="dav">    1.67    1.67</time>
   <time name="total">    2.90    2.90</time>
   <dipole>
    <v name="dipole">      0.00000000       0.00000000       0.01235668 </v>
    <i name="Tr[quadrupol]">      1.09610106 </i>
    <i name="Echarged">      0.00000000 </i>
    <i name="Edipol_quadrupol">      0.00000000 </i>
    <i name="Eion">      0.00000000 </i>
   </dipole>
   <energy>
    <i name="alphaZ">      0.24246516 </i>
    <i name="ewald">    125.17596448 </i>
    <i name="hartreedc">   -609.48735220 </i>
    <i name="XCdc">     39.95487685 </i>
    <i name="pawpsdc">    746.59425996 </i>
    <i name="pawaedc">   -749.00877636 </i>
    <i name="eentropy">      0.00531788 </i>
    <i name="bandstr">   -147.55433251 </i>
    <i name="atom">    579.50485627 </i>
    <i name="e_fr_energy">    -14.57272047 </i>
    <i name="e_wo_entrp">    -14.57803835 </i>
    <i name="e_0_energy">    -14.57449310 </i>
   </energy>
  </scstep>
  <structure>
   <crystal>
    <varray name="basis" >
     <v>      10.16000000       0.00000000       0.00000000 </v>
     <v>       0.00000000      11.76000000       0.00000000 </v>
     <v>       0.00000000       0.00000000      15.00000000 </v>
    </varray>
    <i name="volume">   1792.22400000 </i>
    <varray name="rec_basis" >
     <v>       0.09842520       0.00000000       0.00000000 </v>
     <v>       0.00000000       0.08503401       0.00000000 </v>
     <v>       0.00000000       0.00000000       0.06666667 </v>
    </varray>
   </crystal>
   <varray name="positions" >
    <v>       0.00000000       0.00000000       0.00042431 </v>
    <v>       0.00000000       0.00000000       0.08087569 </v>
   </varray>
  </structure>
  <varray name="forces" >
   <v>       0.00000000       0.00000000       5.76765689 </v>
   <v>       0.00000000       0.00000000      -5.76765689 </v>
  </varray>
  <varray name="stress" >
   <v>       0.01583996       0.00000000       0.00000000 </v>
   <v>       0.00000000      -0.01097953       0.00000000 </v>
   <v>       0.00000000       0.00000000      -6.27412755 </v>
  </varray>
  <energy>
   <i name="e_fr_energy">    -14.57272047 </i>
   <i name="e_wo_entrp">    -14.57449310 </i>
   <i name="e_0_energy">      0.00531788 </i>
  </energy>
  <time name="totalsc">   13.79   13.82</time>
 </calculation>
 <calculation>
  <scstep>
   <time name="dav">    1.58    1.58</time>
   <time name="total">    2.90    2.91</time>
   <dipole>
    <v name="dipole">      0.00000000       0.00000000       0.01222864 </v>
    <i name="Tr[quadrupol]">      1.09373386 </i>
    <i name="Echarged">      0.00000000 </i>
    <i name="Edipol_quadrupol">      0.00000000 </i>
    <i name="Eion">      0.00000000 </i>
   </dipole>
   <energy>
    <i name="alphaZ">      0.24370222 </i>
    <i name="ewald">    146.46807163 </i>
    <i name="hartreedc">   -622.24269252 </i>
    <i name="XCdc">     40.31661678 </i>
    <i name="pawpsdc">    747.68739009 </i>
    <i name="pawaedc">   -750.10279146 </i>
    <i name="eentropy">      0.00544496 </i>
    <i name="bandstr">   -156.64149761 </i>
    <i name="atom">    579.50485627 </i>
    <i name="e_fr_energy">    -14.76089965 </i>
    <i name="e_wo_entrp">    -14.76634461 </i>
    <i name="e_0_energy">    -14.76271464 </i>
   </energy>
  </scstep>
  <scstep>
   <time name="dav">    1.74    1.74</time>
   <time name="total">    3.18    3.18</time>
   <dipole>
    <v name="dipole">      0.00000000       0.00000000       0.00424917 </v>
    <i name="Tr[quadrupol]">      1.09176745 </i>
    <i name="Echarged">      0.00000000 </i>
    <i name="Edipol_quadrupol">      0.00000000 </i>
    <i name="Eion">      0.00000000 </i>
   </dipole>
   <energy>
    <i name="e_fr_energy">    -14.76180066 </i>
    <i name="e_wo_entrp">    -14.76688329 </i>
    <i name="e_0_energy">    -14.76349487 </i>
   </energy>
  </scstep>
  <scstep>
   <time name="dav">    2.04    2.04</time>
   <time name="total">    3.43    3.44</time>
   <dipole>
    <v name="dipole">      0.00000000       0.00000000      -0.00146572 </v>
    <i name="Tr[quadrupol]">      1.09131664 </i>
    <i name="Echarged">      0.00000000 </i>
    <i name="Edipol_quadrupol">      0.00000000 </i>
    <i name="Eion">      0.00000000 </i>
   </dipole>
   <energy>
    <i name="e_fr_energy">    -14.74643138 </i>
    <i name="e_wo_entrp">    -14.75250755 </i>
    <i name="e_0_energy">    -14.74845677 </i>
   </energy>
  </scstep>
  <scstep>
   <time name="dav">    1.71    1.75</time>
   <time name="total">    3.05    3.10</time>
   <dipole>
    <v name="dipole">      0.00000000       0.00000000      -0.00707462 </v>
    <i name="Tr[quadrupol]">      1.09266942 </i>
    <i name="Echarged">      0.00000000 </i>
    <i name="Edipol_quadrupol">      0.00000000 </i>
    <i name="Eion">      0.00000000 </i>
   </dipole>
   <energy>
    <i name="e_fr_energy">    -14.74254463 </i>
    <i name="e_wo_entrp">    -14.74593228 </i>
    <i name="e_0_energy">    -14.74367385 </i>
   </energy>
  </scstep>
  <scstep>
   <time name="dav">    1.55    1.55</time>
   <time name="total">    2.95    2.95</time>
   <dipole>
    <v name="dipole">      0.00000000       0.00000000      -0.00872493 </v>
    <i name="Tr[quadrupol]">      1.09346888 </i>
    <i name="Echarged">      0.00000000 </i>
    <i name="Edipol_quadrupol">      0.00000000 </i>
    <i name="Eion">      0.00000000 </i>
   </dipole>
   <energy>
    <i name="e_fr_energy">    -14.74550095 </i>
    <i name="e_wo_entrp">    -14.75090730 </i>
    <i name="e_0_energy">    -14.74730306 </i>
   </energy>
  </scstep>
  <scstep>
   <time name="dav">    1.73    1.73</time>
   <time name="total">    2.91    2.91</time>
   <dipole>
    <v name="dipole">      0.00000000       0.00000000      -0.01385230 </v>
    <i name="Tr[quadrupol]">      1.09617607 </i>
    <i name="Echarged">      0.00000000 </i>
    <i name="Edipol_quadrupol">      0.00000000 </i>
    <i name="Eion">      0.00000000 </i>
   </dipole>
   <energy>
    <i name="alphaZ">      0.24264119 </i>
    <i name="ewald">    146.46807163 </i>
    <i name="hartreedc">   -626.75701748 </i>
    <i name="XCdc">     40.57643878 </i>
    <i name="pawpsdc">    878.68177228 </i>
    <i name="pawaedc">   -881.20698593 </i>
    <i name="eentropy">      0.00561532 </i>
    <i name="bandstr">   -152.26096795 </i>
    <i name="atom">    579.50485627 </i>
    <i name="e_fr_energy">    -14.74557591 </i>
    <i name="e_wo_entrp">    -14.75119122 </i>
    <i name="e_0_energy">    -14.74744768 </i>
   </energy>
  </scstep>
  <structure>
   <crystal>
    <varray name="basis" >
     <v>      10.16000000       0.00000000       0.00000000 </v>
     <v>       0.00000000      11.76000000       0.00000000 </v>
     <v>       0.00000000       0.00000000      15.00000000 </v>
    </varray>
    <i name="volume">   1792.22400000 </i>
    <varray name="rec_basis" >
     <v>       0.09842520       0.00000000       0.00000000 </v>
     <v>       0.00000000       0.08503401       0.00000000 </v>
     <v>       0.00000000       0.00000000       0.06666667 </v>
    </varray>
   </crystal>
   <varray name="positions" >
    <v>       0.00000000       0.00000000       0.00320869 </v>
    <v>       0.00000000       0.00000000       0.07809131 </v>
   </varray>
  </structure>
  <varray name="forces" >
   <v>       0.00000000       0.00000000      -2.44845544 </v>
   <v>       0.00000000       0.00000000       2.44845544 </v>
  </varray>
  <varray name="stress" >
   <v>      -0.04057273       0.00000000       0.00000000 </v>
   <v>       0.00000000      -0.01857948       0.00000000 </v>
   <v>       0.00000000       0.00000000       2.40206209 </v>
  </varray>
  <energy>
   <i name="e_fr_energy">    -14.74557591 </i>
   <i name="e_wo_entrp">    -14.74744768 </i>
   <i name="e_0_energy">      0.00561532 </i>
  </energy>
  <time name="totalsc">   23.39   23.46</time>
 </calculation>
 <calculation>
  <scstep>
   <time name="dav">    1.49    1.49</time>
   <time name="total">    2.87    2.87</time>
   <dipole>
    <v name="dipole">      0.00000000       0.00000000      -0.01627324 </v>
    <i name="Tr[quadrupol]">      1.09739051 </i>
    <i name="Echarged">      0.00000000 </i>
    <i name="Edipol_quadrupol">      0.00000000 </i>
    <i name="Eion">      0.00000000 </i>
   </dipole>
   <energy>
    <i name="alphaZ">      0.24247684 </i>
    <i name="ewald">    139.79866952 </i>
    <i name="hartreedc">   -622.82847149 </i>
    <i name="XCdc">     40.46197279 </i>
    <i name="pawpsdc">    879.63876242 </i>
    <i name="pawaedc">   -882.16329164 </i>
    <i name="eentropy">      0.00539515 </i>
    <i name="bandstr">   -149.43159356 </i>
    <i name="atom">    579.50485627 </i>
    <i name="e_fr_energy">    -14.77122369 </i>
    <i name="e_wo_entrp">    -14.77661884 </i>
    <i name="e_0_energy">    -14.77302207 </i>
   </energy>
  </scstep>
  <scstep>
   <time name="dav">    1.70    1.70</time>
   <time name="total">    3.08    3.08</time>
   <dipole>
    <v name="dipole">      0.00000000       0.00000000      -0.01601930 </v>
    <i name="Tr[quadrupol]">      1.09859417 </i>
    <i name="Echarged">      0.00000000 </i>
    <i name="Edipol_quadrupol">      0.00000000 </i>
    <i name="Eion">      0.00000000 </i>
   </dipole>
   <energy>
    <i name="e_fr_energy">    -14.77017268 </i>
    <i name="e_wo_entrp">    -14.77551634 </i>
    <i name="e_0_energy">    -14.77195390 </i>
   </energy>
  </scstep>
  <scstep>
   <time name="dav">    1.64    1.64</time>
   <time name="total">    3.03    3.03</time>
   <dipole>
    <v name="dipole">      0.00000000       0.00000000      -0.01695788 </v>
    <i name="Tr[quadrupol]">      1.09725298 </i>
    <i name="Echarged">      0.00000000 </i>
    <i name="Edipol_quadrupol">      0.00000000 </i>
    <i name="Eion">      0.00000000 </i>
   </dipole>
   <energy>
    <i name="e_fr_energy">    -14.76912770 </i>
    <i name="e_wo_entrp">    -14.77464343 </i>
    <i name="e_0_energy">    -14.77096628 </i>
   </energy>
  </scstep>
  <scstep>
   <time name="dav">    1.68    1.68</time>
   <time name="total">    2.84    2.85</time>
   <dipole>
    <v name="dipole">      0.00000000       0.00000000      -0.01818860 </v>
    <i name="Tr[quadrupol]">      1.09793852 </i>
    <i name="Echarged">      0.00000000 </i>
    <i name="Edipol_quadrupol">      0.00000000 </i>
    <i name="Eion">      0.00000000 </i>
   </dipole>
   <energy>
    <i name="alphaZ">      0.24398198 </i>
    <i name="ewald">    139.79866952 </i>
    <i name="hartreedc">   -621.37594180 </i>
    <i name="XCdc">     40.37902120 </i>
    <i name="pawpsdc">    840.18297722 </i>
    <i name="pawaedc">   -842.66862975 </i>
    <i name="eentropy">      0.00494363 </i>
    <i name="bandstr">   -150.83905964 </i>
    <i name="atom">    579.50485627 </i>
    <i name="e_fr_energy">    -14.76918136 </i>
    <i name="e_wo_entrp">    -14.77412499 </i>
    <i name="e_0_energy">    -14.77082924 </i>
   </energy>
  </scstep>
  <structure>
   <crystal>
    <varray name="basis" >
     <v>      10.16000000       0.00000000       0.00000000 </v>
     <v>       0.00000000      11.76000000       0.00000000 </v>
     <v>       0.00000000       0.00000000      15.00000000 </v>
    </varray>
    <i name="volume">   1792.22400000 </i>
    <varray name="rec_basis" >
     <v>       0.09842520       0.00000000       0.00000000 </v>
     <v>       0.00000000       0.08503401       0.00000000 </v>
     <v>       0.00000000       0.00000000       0.06666667 </v>
    </varray>
   </crystal>
   <varray name="positions" >
    <v>       0.00000000       0.00000000       0.00237892 </v>
    <v>       0.00000000       0.00000000       0.07892108 </v>
   </varray>
  </structure>
  <varray name="forces" >
   <v>       0.00000000       0.00000000       0.55975474 </v>
   <v>       0.00000000       0.00000000      -0.55975474 </v>
  </varray>
  <varray name="stress" >
   <v>       0.02167183       0.00000000       0.00000000 </v>
   <v>       0.00000000      -0.00164904       0.00000000 </v>
   <v>       0.00000000       0.00000000      -0.58556425 </v>
  </varray>
  <energy>
   <i name="e_fr_energy">    -14.76918136 </i>
   <i name="e_wo_entrp">    -14.77082924 </i>
   <i name="e_0_energy">      0.00494363 </i>
  </energy>
  <time name="totalsc">   16.80   16.82</time>
 </calculation>
 <calculation>
  <scstep>
   <time name="dav">    1.62    1.62</time>
   <time name="total">    3.04    3.04</time>
   <dipole>
    <v name="dipole">      0.00000000       0.00000000      -0.01865482 </v>
    <i name="Tr[quadrupol]">      1.09810125 </i>
    <i name="Echarged">      0.00000000 </i>
    <i name="Edipol_quadrupol">      0.00000000 </i>
    <i name="Eion">      0.00000000 </i>
   </dipole>
   <energy>
    <i name="alphaZ">      0.24397716 </i>
    <i name="ewald">    141.01768523 </i>
    <i name="hartreedc">   -622.10800844 </i>
    <i name="XCdc">     40.40026968 </i>
    <i name="pawpsdc">    839.13656821 </i>
    <i name="pawaedc">   -841.62211373 </i>
    <i name="eentropy">      0.00556466 </i>
    <i name="bandstr">   -151.34950181 </i>
    <i name="atom">    579.50485627 </i>
    <i name="e_fr_energy">    -14.77070278 </i>
    <i name="e_wo_entrp">    -14.77626743 </i>
    <i name="e_0_energy">    -14.77255766 </i>
   </energy>
  </scstep>
  <scstep>
   <time name="dav">    1.69    1.69</time>
   <time name="total">    3.04    3.04</time>
   <dipole>
    <v name="dipole">      0.00000000       0.00000000      -0.01998258 </v>
    <i name="Tr[quadrupol]">      1.09828785 </i>
    <i name="Echarged">      0.00000000 </i>
    <i name="Edipol_quadrupol">      0.00000000 </i>
    <i name="Eion">      0.00000000 </i>
   </dipole>
   <energy>
    <i name="e_fr_energy">    -14.77060077 </i>
    <i name="e_wo_entrp">    -14.77549217 </i>
    <i name="e_0_energy">    -14.77223124 </i>
   </energy>
  </scstep>
  <scstep>
   <time name="dav">    1.65    1.65</time>
   <time name="total">    2.77    2.77</time>
   <dipole>
    <v name="dipole">      0.00000000       0.00000000      -0.02067027 </v>
    <i name="Tr[quadrupol]">      1.09843116 </i>
    <i name="Echarged">      0.00000000 </i>
    <i name="Edipol_quadrupol">      0.00000000 </i>
    <i name="Eion">      0.00000000 </i>
   </dipole>
   <energy>
    <i name="alphaZ">      0.24399336 </i>
    <i name="ewald">    141.01768523 </i>
    <i name="hartreedc">   -622.32753377 </i>
    <i name="XCdc">     40.41283021 </i>
    <i name="pawpsdc">    842.33221151 </i>
    <i name="pawaedc">   -844.82239462 </i>
    <i name="eentropy">      0.00585776 </i>
    <i name="bandstr">   -151.13806855 </i>
    <i name="atom">    579.50485627 </i>
    <i name="e_fr_energy">    -14.77056261 </i>
    <i name="e_wo_entrp">    -14.77642036 </i>
    <i name="e_0_energy">    -14.77251519 </i>
   </energy>
  </scstep>
  <structure>
   <crystal>
    <varray name="basis" >
     <v>      10.16000000       0.00000000       0.00000000 </v>
     <v>       0.00000000      11.76000000       0.00000000 </v>
     <v>       0.00000000       0.00000000      15.00000000 </v>
    </varray>
    <i name="volume">   1792.22400000 </i>
    <varray name="rec_basis" >
     <v>       0.09842520       0.00000000       0.00000000 </v>
     <v>       0.00000000       0.08503401       0.00000000 </v>
     <v>       0.00000000       0.00000000       0.06666667 </v>
    </varray>
   </crystal>
   <varray name="positions" >
    <v>       0.00000000       0.00000000       0.00253332 </v>
    <v>       0.00000000       0.00000000       0.07876668 </v>
   </varray>
  </structure>
  <varray name="forces" >
   <v>       0.00000000       0.00000000       0.04871652 </v>
   <v>       0.00000000       0.00000000      -0.04871652 </v>
  </varray>
  <varray name="stress" >
   <v>       0.04561936       0.00000000       0.00000000 </v>
   <v>       0.00000000       0.04099256       0.00000000 </v>
   <v>       0.00000000       0.00000000      -0.10605357 </v>
  </varray>
  <energy>
   <i name="e_fr_energy">    -14.77056261 </i>
   <i name="e_wo_entrp">    -14.77251519 </i>
   <i name="e_0_energy">      0.00585776 </i>
  </energy>
  <time name="totalsc">   13.79   13.81</time>
 </calculation>
 <calculation>
  <scstep>
   <time name="dav">    1.65    1.65</time>
   <time name="total">    2.95    2.95</time>
   <dipole>
    <v name="dipole">      0.00000000       0.00000000      -0.02176859 </v>
    <i name="Tr[quadrupol]">      1.09866935 </i>
    <i name="Echarged">      0.00000000 </i>
    <i name="Edipol_quadrupol">      0.00000000 </i>
    <i name="Eion">      0.00000000 </i>
   </dipole>
   <energy>
    <i name="alphaZ">      0.24400105 </i>
    <i name="ewald">    141.13213022 </i>
    <i name="hartreedc">   -622.46615521 </i>
    <i name="XCdc">     40.41865694 </i>
    <i name="pawpsdc">    843.25421398 </i>
    <i name="pawaedc">   -845.74648792 </i>
    <i name="eentropy">      0.00532271 </i>
    <i name="bandstr">   -151.11722740 </i>
    <i name="atom">    579.50485627 </i>
    <i name="e_fr_energy">    -14.77068935 </i>
    <i name="e_wo_entrp">    -14.77601206 </i>
    <i name="e_0_energy">    -14.77246359 </i>
   </energy>
  </scstep>
  <scstep>
   <time name="dav">    1.70    1.70</time>
   <time name="total">    2.89    2.89</time>
   <dipole>
    <v name="dipole">      0.00000000       0.00000000      -0.02269719 </v>
    <i name="Tr[quadrupol]">      1.09897171 </i>
    <i name="Echarged">      0.00000000 </i>
    <i name="Edipol_quadrupol">      0.00000000 </i>
    <i name="Eion">      0.00000000 </i>
   </dipole>
   <energy>
    <i name="alphaZ">      0.24400823 </i>
    <i name="ewald">    141.13213022 </i>
    <i name="hartreedc">   -622.48908521 </i>
    <i name="XCdc">     40.41986225 </i>
    <i name="pawpsdc">    843.94206065 </i>
    <i name="pawaedc">   -846.43501924 </i>
    <i name="eentropy">      0.00548934 </i>
    <i name="bandstr">   -151.09500316 </i>
    <i name="atom">    579.50485627 </i>
    <i name="e_fr_energy">    -14.77070064 </i>
    <i name="e_wo_entrp">    -14.77618999 </i>
    <i name="e_0_energy">    -14.77253042 </i>
   </energy>
  </scstep>
  <structure>
   <crystal>
    <varray name="basis" >
     <v>      10.16000000       0.00000000       0.00000000 </v>
     <v>       0.00000000      11.76000000       0.00000000 </v>
     <v>       0.00000000       0.00000000      15.00000000 </v>
    </varray>
    <i name="volume">   1792.22400000 </i>
    <varray name="rec_basis" >
     <v>       0.09842520       0.00000000       0.00000000 </v>
     <v>       0.00000000       0.08503401       0.00000000 </v>
     <v>       0.00000000       0.00000000       0.06666667 </v>
    </varray>
   </crystal>
   <varray name="positions" >
    <v>       0.00000000       0.00000000       0.00254775 </v>
    <v>       0.00000000       0.00000000       0.07875225 </v>
   </varray>
  </structure>
  <varray name="forces" >
   <v>       0.00000000       0.00000000      -0.02034545 </v>
   <v>       0.00000000       0.00000000       0.02034545 </v>
  </varray>
  <varray name="stress" >
   <v>      -0.00803747       0.00000000       0.00000000 </v>
   <v>       0.00000000      -0.01271019       0.00000000 </v>
   <v>       0.00000000       0.00000000      -0.06722267 </v>
  </varray>
  <energy>
   <i name="e_fr_energy">    -14.77070064 </i>
   <i name="e_wo_entrp">    -14.77253042 </i>
   <i name="e_0_energy">      0.00548934 </i>
  </energy>
  <time name="totalsc">   10.67   10.68</time>
 </calculation>
 <calculation>
  <scstep>
   <time name="dav">    1.67    1.67</time>
   <time name="total">    3.08    3.08</time>
   <dipole>
    <v name="dipole">      0.00000000       0.00000000      -0.02307671 </v>
    <i name="Tr[quadrupol]">      1.09910725 </i>
    <i name="Echarged">      0.00000000 </i>
    <i name="Edipol_quadrupol">      0.00000000 </i>
    <i name="Eion">      0.00000000 </i>
   </dipole>
   <energy>
    <i name="alphaZ">      0.24401144 </i>
    <i name="ewald">    141.09840606 </i>
    <i name="hartreedc">   -622.47412884 </i>
    <i name="XCdc">     40.41956793 </i>
    <i name="pawpsdc">    844.14116516 </i>
    <i name="pawaedc">   -846.63431205 </i>
    <i name="eentropy">      0.00530819 </i>
    <i name="bandstr">   -151.07559098 </i>
    <i name="atom">    579.50485627 </i>
    <i name="e_fr_energy">    -14.77071682 </i>
    <i name="e_wo_entrp">    -14.77602501 </i>
    <i name="e_0_energy">    -14.77248621 </i>
   </energy>
  </scstep>
  <scstep>
   <time name="dav">    1.53    1.53</time>
   <time name="total">    2.73    2.73</time>
   <dipole>
    <v name="dipole">      0.00000000       0.00000000      -0.02385873 </v>
    <i name="Tr[quadrupol]">      1.09939795 </i>
    <i name="Echarged">      0.00000000 </i>
    <i name="Edipol_quadrupol">      0.00000000 </i>
    <i name="Eion">      0.00000000 </i>
   </dipole>
   <energy>
    <i name="alphaZ">      0.24401740 </i>
    <i name="ewald">    141.09840606 </i>
    <i name="hartreedc">   -622.47745199 </i>
    <i name="XCdc">     40.41966228 </i>
    <i name="pawpsdc">    844.41194070 </i>
    <i name="pawaedc">   -846.90532827 </i>
    <i name="eentropy">      0.00552365 </i>
    <i name="bandstr">   -151.07234637 </i>
    <i name="atom">    579.50485627 </i>
    <i name="e_fr_energy">    -14.77072027 </i>
    <i name="e_wo_entrp">    -14.77624393 </i>
    <i name="e_0_energy">    -14.77256149 </i>
   </energy>
  </scstep>
  <structure>
   <crystal>
    <varray name="basis" >
     <v>      10.16000000       0.00000000       0.00000000 </v>
     <v>       0.00000000      11.76000000       0.00000000 </v>
     <v>       0.00000000       0.00000000      15.00000000 </v>
    </varray>
    <i name="volume">   1792.22400000 </i>
    <varray name="rec_basis" >
     <v>       0.09842520       0.00000000       0.00000000 </v>
     <v>       0.00000000       0.08503401       0.00000000 </v>
     <v>       0.00000000       0.00000000       0.06666667 </v>
    </varray>
   </crystal>
   <varray name="positions" >
    <v>       0.00000000       0.00000000       0.00254350 </v>
    <v>       0.00000000       0.00000000       0.07875650 </v>
   </varray>
  </structure>
  <varray name="forces" >
   <v>       0.00000000       0.00000000      -0.01165022 </v>
   <v>       0.00000000       0.00000000       0.01165022 </v>
  </varray>
  <varray name="stress" >
   <v>      -0.02279542       0.00000000       0.00000000 </v>
   <v>       0.00000000      -0.02746205       0.00000000 </v>
   <v>       0.00000000       0.00000000      -0.08324474 </v>
  </varray>
  <energy>
   <i name="e_fr_energy">    -14.77072027 </i>
   <i name="e_wo_entrp">    -14.77256149 </i>
   <i name="e_0_energy">      0.00552365 </i>
  </energy>
  <time name="totalsc">   10.70   10.72</time>
 </calculation>
 <calculation>
  <scstep>
   <time name="dav">    1.63    1.63</time>
   <time name="total">    2.95    2.96</time>
   <dipole>
    <v name="dipole">      0.00000000       0.00000000      -0.02408049 </v>
    <i name="Tr[quadrupol]">      1.09948325 </i>
    <i name="Echarged">      0.00000000 </i>
    <i name="Edipol_quadrupol">      0.00000000 </i>
    <i name="Eion">      0.00000000 </i>
   </dipole>
   <energy>
    <i name="alphaZ">      0.24401942 </i>
    <i name="ewald">    141.06194981 </i>
    <i name="hartreedc">   -622.45606540 </i>
    <i name="XCdc">     40.41906375 </i>
    <i name="pawpsdc">    844.46474973 </i>
    <i name="pawaedc">   -846.95816402 </i>
    <i name="eentropy">      0.00536565 </i>
    <i name="bandstr">   -151.05651278 </i>
    <i name="atom">    579.50485627 </i>
    <i name="e_fr_energy">    -14.77073758 </i>
    <i name="e_wo_entrp">    -14.77610324 </i>
    <i name="e_0_energy">    -14.77252613 </i>
   </energy>
  </scstep>
  <scstep>
   <time name="dav">    1.60    1.60</time>
   <time name="total">    2.75    2.75</time>
   <dipole>
    <v name="dipole">      0.00000000       0.00000000      -0.02476384 </v>
    <i name="Tr[quadrupol]">      1.09975625 </i>
    <i name="Echarged">      0.00000000 </i>
    <i name="Edipol_quadrupol">      0.00000000 </i>
    <i name="Eion">      0.00000000 </i>
   </dipole>
   <energy>
    <i name="alphaZ">      0.24402457 </i>
    <i name="ewald">    141.06194981 </i>
    <i name="hartreedc">   -622.45227552 </i>
    <i name="XCdc">     40.41880795 </i>
    <i name="pawpsdc">    844.52054648 </i>
    <i name="pawaedc">   -847.01396634 </i>
    <i name="eentropy">      0.00539088 </i>
    <i name="bandstr">   -151.06008444 </i>
    <i name="atom">    579.50485627 </i>
    <i name="e_fr_energy">    -14.77075035 </i>
    <i name="e_wo_entrp">    -14.77614123 </i>
[...]
       <r>    -7.3865     0.0000     5.0000 </r>
       <r>    -7.2765     0.0000     5.0000 </r>
       <r>    -7.1666     0.0000     5.0000 </r>
       <r>    -7.0566     0.0000     5.0000 </r>
       <r>    -6.9466     0.0000     5.0000 </r>
       <r>    -6.8367     0.0000     5.0000 </r>
       <r>    -6.7267     0.0000     5.0000 </r>
       <r>    -6.6168     0.0000     5.0000 </r>
       <r>    -6.5068     0.0000     5.0000 </r>
       <r>    -6.3968     0.0000     5.0000 </r>
       <r>    -6.2869     0.0000     5.0000 </r>
       <r>    -6.1769     0.0000     5.0000 </r>
       <r>    -6.0669     0.0000     5.0000 </r>
       <r>    -5.9570     0.0000     5.0000 </r>
       <r>    -5.8470     0.0000     5.0000 </r>
       <r>    -5.7370     0.0000     5.0000 </r>
       <r>    -5.6271     0.0000     5.0000 </r>
       <r>    -5.5171     0.0000     5.0000 </r>
       <r>    -5.4072     0.0000     5.0000 </r>
       <r>    -5.2972     0.0000     5.0000 </r>
       <r>    -5.1872     0.0000     5.0000 </r>
       <r>    -5.0773     0.0000     5.0000 </r>
       <r>    -4.9673     0.0000     5.0000 </r>
       <r>    -4.8573     0.0000     5.0000 </r>
       <r>    -4.7474     0.0000     5.0000 </r>
       <r>    -4.6374     0.0000     5.0000 </r>
       <r>    -4.5274     0.0000     5.0000 </r>
       <r>    -4.4175     0.0000     5.0000 </r>
       <r>    -4.3075     0.0000     5.0000 </r>
       <r>    -4.1975     0.0000     5.0000 </r>
       <r>    -4.0876     0.0000     5.0000 </r>
       <r>    -3.9776     0.0000     5.0000 </r>
       <r>    -3.8677     0.0000     5.0000 </r>
       <r>    -3.7577     0.0000     5.0000 </r>
       <r>    -3.6477     0.0000     5.0000 </r>
       <r>    -3.5378     0.0000     5.0000 </r>
       <r>    -3.4278     0.0000     5.0000 </r>
       <r>    -3.3178     0.0000     5.0000 </r>
       <r>    -3.2079     0.0000     5.0000 </r>
       <r>    -3.0979     0.0000     5.0000 </r>
       <r>    -2.9879    -0.0000     5.0000 </r>
       <r>    -2.8780    -0.0000     5.0000 </r>
       <r>    -2.7680    -0.0000     5.0000 </r>
       <r>    -2.6581    -0.0000     5.0000 </r>
       <r>    -2.5481    -0.0000     5.0000 </r>
       <r>    -2.4381    -0.0000     5.0000 </r>
       <r>    -2.3282    -0.0237     4.9974 </r>
       <r>    -2.2182    -0.5711     4.9346 </r>
       <r>    -2.1082     5.6488     5.5558 </r>
       <r>    -1.9983    13.0687     6.9928 </r>
       <r>    -1.8883     0.2486     7.0202 </r>
       <r>    -1.7783    -0.1820     7.0002 </r>
       <r>    -1.6684    -0.0015     7.0000 </r>
       <r>    -1.5584    -0.0000     7.0000 </r>
       <r>    -1.4484    -0.0000     7.0000 </r>
       <r>    -1.3385     0.0000     7.0000 </r>
       <r>    -1.2285     0.0000     7.0000 </r>
       <r>    -1.1186    -0.0000     7.0000 </r>
       <r>    -1.0086    -0.0000     7.0000 </r>
       <r>    -0.8986    -0.0000     7.0000 </r>
       <r>    -0.7887    -0.0000     7.0000 </r>
       <r>    -0.6787    -0.0000     7.0000 </r>
       <r>    -0.5687    -0.0000     7.0000 </r>
       <r>    -0.4588    -0.0012     6.9999 </r>
       <r>    -0.3488    -0.0342     6.9961 </r>
       <r>    -0.2388     0.2059     7.0187 </r>
       <r>    -0.1289     1.4162     7.1745 </r>
       <r>    -0.0189     3.2232     7.5289 </r>
       <r>     0.0910     3.5805     7.9226 </r>
       <r>     0.2010     1.0136     8.0341 </r>
       <r>     0.3110     2.1885     8.2748 </r>
       <r>     0.4209     5.8211     8.9149 </r>
       <r>     0.5309     7.4557     9.7347 </r>
       <r>     0.6409     1.5788     9.9083 </r>
       <r>     0.7508     0.0366     9.9124 </r>
       <r>     0.8608     0.7631     9.9963 </r>
       <r>     0.9708     0.0478    10.0015 </r>
       <r>     1.0807    -0.0137    10.0000 </r>
       <r>     1.1907    -0.0001    10.0000 </r>
       <r>     1.3007    -0.0000    10.0000 </r>
       <r>     1.4106    -0.0000    10.0000 </r>
       <r>     1.5206     0.0000    10.0000 </r>
       <r>     1.6305     0.0000    10.0000 </r>
       <r>     1.7405     0.0000    10.0000 </r>
       <r>     1.8505     0.0000    10.0000 </r>
       <r>     1.9604     0.0000    10.0000 </r>
       <r>     2.0704     0.0000    10.0000 </r>
       <r>     2.1804     0.0000    10.0000 </r>
       <r>     2.2903     0.0000    10.0000 </r>
      </set>
      <set comment="spin 2">
       <r>   -30.6989     0.0000     0.0000 </r>
       <r>   -30.5889     0.0000     0.0000 </r>
       <r>   -30.4789     0.0000     0.0000 </r>
       <r>   -30.3690     0.0000     0.0000 </r>
       <r>   -30.2590     0.0000     0.0000 </r>
       <r>   -30.1490     0.0000     0.0000 </r>
       <r>   -30.0391    -0.0000    -0.0000 </r>
       <r>   -29.9291    -0.0000    -0.0000 </r>
       <r>   -29.8191    -0.0000    -0.0000 </r>
       <r>   -29.7092    -0.0000    -0.0000 </r>
       <r>   -29.5992    -0.0000    -0.0000 </r>
       <r>   -29.4893    -0.0015    -0.0002 </r>
       <r>   -29.3793    -0.1299    -0.0145 </r>
       <r>   -29.2693     0.4967     0.0402 </r>
       <r>   -29.1594     7.0026     0.8102 </r>
       <r>   -29.0494     1.9777     1.0277 </r>
       <r>   -28.9394    -0.2450     1.0007 </r>
       <r>   -28.8295    -0.0067     1.0000 </r>
       <r>   -28.7195    -0.0000     1.0000 </r>
       <r>   -28.6095    -0.0000     1.0000 </r>
       <r>   -28.4996    -0.0000     1.0000 </r>
       <r>   -28.3896     0.0000     1.0000 </r>
       <r>   -28.2797     0.0000     1.0000 </r>
       <r>   -28.1697     0.0000     1.0000 </r>
       <r>   -28.0597     0.0000     1.0000 </r>
       <r>   -27.9498     0.0000     1.0000 </r>
       <r>   -27.8398     0.0000     1.0000 </r>
       <r>   -27.7298     0.0000     1.0000 </r>
       <r>   -27.6199     0.0000     1.0000 </r>
       <r>   -27.5099     0.0000     1.0000 </r>
       <r>   -27.3999     0.0000     1.0000 </r>
       <r>   -27.2900     0.0000     1.0000 </r>
       <r>   -27.1800     0.0000     1.0000 </r>
       <r>   -27.0700     0.0000     1.0000 </r>
       <r>   -26.9601     0.0000     1.0000 </r>
       <r>   -26.8501     0.0000     1.0000 </r>
       <r>   -26.7402     0.0000     1.0000 </r>
       <r>   -26.6302     0.0000     1.0000 </r>
       <r>   -26.5202     0.0000     1.0000 </r>
       <r>   -26.4103     0.0000     1.0000 </r>
       <r>   -26.3003     0.0000     1.0000 </r>
       <r>   -26.1903     0.0000     1.0000 </r>
       <r>   -26.0804     0.0000     1.0000 </r>
       <r>   -25.9704     0.0000     1.0000 </r>
       <r>   -25.8604     0.0000     1.0000 </r>
       <r>   -25.7505     0.0000     1.0000 </r>
       <r>   -25.6405     0.0000     1.0000 </r>
       <r>   -25.5306     0.0000     1.0000 </r>
       <r>   -25.4206     0.0000     1.0000 </r>
       <r>   -25.3106     0.0000     1.0000 </r>
       <r>   -25.2007     0.0000     1.0000 </r>
       <r>   -25.0907     0.0000     1.0000 </r>
       <r>   -24.9807     0.0000     1.0000 </r>
       <r>   -24.8708     0.0000     1.0000 </r>
       <r>   -24.7608     0.0000     1.0000 </r>
       <r>   -24.6508     0.0000     1.0000 </r>
       <r>   -24.5409     0.0000     1.0000 </r>
       <r>   -24.4309     0.0000     1.0000 </r>
       <r>   -24.3209     0.0000     1.0000 </r>
       <r>   -24.2110     0.0000     1.0000 </r>
       <r>   -24.1010     0.0000     1.0000 </r>
       <r>   -23.9911     0.0000     1.0000 </r>
       <r>   -23.8811     0.0000     1.0000 </r>
       <r>   -23.7711     0.0000     1.0000 </r>
       <r>   -23.6612     0.0000     1.0000 </r>
       <r>   -23.5512     0.0000     1.0000 </r>
       <r>   -23.4412     0.0000     1.0000 </r>
       <r>   -23.3313     0.0000     1.0000 </r>
       <r>   -23.2213     0.0000     1.0000 </r>
       <r>   -23.1113     0.0000     1.0000 </r>
       <r>   -23.0014     0.0000     1.0000 </r>
       <r>   -22.8914     0.0000     1.0000 </r>
       <r>   -22.7815     0.0000     1.0000 </r>
       <r>   -22.6715     0.0000     1.0000 </r>
       <r>   -22.5615     0.0000     1.0000 </r>
       <r>   -22.4516     0.0000     1.0000 </r>
       <r>   -22.3416     0.0000     1.0000 </r>
       <r>   -22.2316     0.0000     1.0000 </r>
       <r>   -22.1217     0.0000     1.0000 </r>
       <r>   -22.0117     0.0000     1.0000 </r>
       <r>   -21.9017     0.0000     1.0000 </r>
       <r>   -21.7918     0.0000     1.0000 </r>
       <r>   -21.6818     0.0000     1.0000 </r>
       <r>   -21.5719     0.0000     1.0000 </r>
       <r>   -21.4619     0.0000     1.0000 </r>
       <r>   -21.3519     0.0000     1.0000 </r>
       <r>   -21.2420     0.0000     1.0000 </r>
       <r>   -21.1320     0.0000     1.0000 </r>
       <r>   -21.0220     0.0000     1.0000 </r>
       <r>   -20.9121     0.0000     1.0000 </r>
       <r>   -20.8021     0.0000     1.0000 </r>
       <r>   -20.6921     0.0000     1.0000 </r>
       <r>   -20.5822     0.0000     1.0000 </r>
       <r>   -20.4722     0.0000     1.0000 </r>
       <r>   -20.3622     0.0000     1.0000 </r>
       <r>   -20.2523     0.0000     1.0000 </r>
       <r>   -20.1423     0.0000     1.0000 </r>
       <r>   -20.0324     0.0000     1.0000 </r>
       <r>   -19.9224     0.0000     1.0000 </r>
       <r>   -19.8124     0.0000     1.0000 </r>
       <r>   -19.7025     0.0000     1.0000 </r>
       <r>   -19.5925     0.0000     1.0000 </r>
       <r>   -19.4825     0.0000     1.0000 </r>
       <r>   -19.3726     0.0000     1.0000 </r>
       <r>   -19.2626     0.0000     1.0000 </r>
       <r>   -19.1526     0.0000     1.0000 </r>
       <r>   -19.0427     0.0000     1.0000 </r>
       <r>   -18.9327     0.0000     1.0000 </r>
       <r>   -18.8228     0.0000     1.0000 </r>
       <r>   -18.7128     0.0000     1.0000 </r>
       <r>   -18.6028     0.0000     1.0000 </r>
       <r>   -18.4929     0.0000     1.0000 </r>
       <r>   -18.3829     0.0000     1.0000 </r>
       <r>   -18.2729     0.0000     1.0000 </r>
       <r>   -18.1630     0.0000     1.0000 </r>
       <r>   -18.0530     0.0000     1.0000 </r>
       <r>   -17.9430     0.0000     1.0000 </r>
       <r>   -17.8331     0.0000     1.0000 </r>
       <r>   -17.7231     0.0000     1.0000 </r>
       <r>   -17.6131     0.0000     1.0000 </r>
       <r>   -17.5032     0.0000     1.0000 </r>
       <r>   -17.3932     0.0000     1.0000 </r>
       <r>   -17.2833     0.0000     1.0000 </r>
       <r>   -17.1733     0.0000     1.0000 </r>
       <r>   -17.0633     0.0000     1.0000 </r>
       <r>   -16.9534     0.0000     1.0000 </r>
       <r>   -16.8434     0.0000     1.0000 </r>
       <r>   -16.7334     0.0000     1.0000 </r>
       <r>   -16.6235     0.0000     1.0000 </r>
       <r>   -16.5135     0.0000     1.0000 </r>
       <r>   -16.4035     0.0000     1.0000 </r>
       <r>   -16.2936     0.0000     1.0000 </r>
       <r>   -16.1836     0.0000     1.0000 </r>
       <r>   -16.0737     0.0000     1.0000 </r>
       <r>   -15.9637     0.0000     1.0000 </r>
       <r>   -15.8537     0.0000     1.0000 </r>
       <r>   -15.7438     0.0000     1.0000 </r>
       <r>   -15.6338     0.0000     1.0000 </r>
       <r>   -15.5238     0.0000     1.0000 </r>
       <r>   -15.4139     0.0000     1.0000 </r>
       <r>   -15.3039     0.0000     1.0000 </r>
       <r>   -15.1939     0.0000     1.0000 </r>
       <r>   -15.0840     0.0000     1.0000 </r>
       <r>   -14.9740     0.0000     1.0000 </r>
       <r>   -14.8640    -0.0000     1.0000 </r>
       <r>   -14.7541    -0.0000     1.0000 </r>
       <r>   -14.6441    -0.0000     1.0000 </r>
       <r>   -14.5342    -0.0000     1.0000 </r>
       <r>   -14.4242    -0.0000     1.0000 </r>
       <r>   -14.3142    -0.0003     1.0000 </r>
       <r>   -14.2043    -0.0509     0.9944 </r>
       <r>   -14.0943    -0.1817     0.9744 </r>
       <r>   -13.9843     5.5071     1.5800 </r>
       <r>   -13.8744     4.1408     2.0353 </r>
       <r>   -13.7644    -0.2960     2.0028 </r>
       <r>   -13.6544    -0.0250     2.0000 </r>
       <r>   -13.5445    -0.0001     2.0000 </r>
       <r>   -13.4345    -0.0000     2.0000 </r>
       <r>   -13.3246    -0.0000     2.0000 </r>
       <r>   -13.2146     0.0000     2.0000 </r>
       <r>   -13.1046     0.0000     2.0000 </r>
       <r>   -12.9947     0.0000     2.0000 </r>
       <r>   -12.8847     0.0000     2.0000 </r>
       <r>   -12.7747     0.0000     2.0000 </r>
       <r>   -12.6648     0.0000     2.0000 </r>
       <r>   -12.5548    -0.0000     2.0000 </r>
       <r>   -12.4448    -0.0000     2.0000 </r>
       <r>   -12.3349    -0.0000     2.0000 </r>
       <r>   -12.2249    -0.0000     2.0000 </r>
       <r>   -12.1150    -0.0000     2.0000 </r>
       <r>   -12.0050    -0.0006     1.9999 </r>
       <r>   -11.8950    -0.1081     1.9880 </r>
       <r>   -11.7851    -0.3234     1.9525 </r>
       <r>   -11.6751    11.2432     3.1888 </r>
       <r>   -11.5651     8.0211     4.0709 </r>
       <r>   -11.4552    -0.5976     4.0052 </r>
       <r>   -11.3452    -0.0467     4.0000 </r>
       <r>   -11.2352    -0.0001     4.0000 </r>
       <r>   -11.1253    -0.0000     4.0000 </r>
       <r>   -11.0153    -0.0000     4.0000 </r>
       <r>   -10.9053     0.0000     4.0000 </r>
       <r>   -10.7954     0.0000     4.0000 </r>
       <r>   -10.6854     0.0000     4.0000 </r>
       <r>   -10.5755     0.0000     4.0000 </r>
       <r>   -10.4655     0.0000     4.0000 </r>
       <r>   -10.3555     0.0000     4.0000 </r>
       <r>   -10.2456     0.0000     4.0000 </r>
       <r>   -10.1356     0.0000     4.0000 </r>
       <r>   -10.0256     0.0000     4.0000 </r>
       <r>    -9.9157    -0.0000     4.0000 </r>
       <r>    -9.8057    -0.0000     4.0000 </r>
       <r>    -9.6957    -0.0000     4.0000 </r>
       <r>    -9.5858    -0.0000     4.0000 </r>
       <r>    -9.4758    -0.0000     4.0000 </r>
       <r>    -9.3659    -0.0001     4.0000 </r>
       <r>    -9.2559    -0.0281     3.9969 </r>
       <r>    -9.1459    -0.2889     3.9651 </r>
       <r>    -9.0360     4.3604     4.4446 </r>
       <r>    -8.9260     5.3080     5.0283 </r>
       <r>    -8.8160    -0.2113     5.0051 </r>
       <r>    -8.7061    -0.0459     5.0000 </r>
       <r>    -8.5961    -0.0002     5.0000 </r>
       <r>    -8.4861    -0.0000     5.0000 </r>
       <r>    -8.3762    -0.0000     5.0000 </r>
       <r>    -8.2662     0.0000     5.0000 </r>
       <r>    -8.1562     0.0000     5.0000 </r>
       <r>    -8.0463     0.0000     5.0000 </r>
       <r>    -7.9363     0.0000     5.0000 </r>
       <r>    -7.8264     0.0000     5.0000 </r>
       <r>    -7.7164     0.0000     5.0000 </r>
       <r>    -7.6064     0.0000     5.0000 </r>
       <r>    -7.4965     0.0000     5.0000 </r>
       <r>    -7.3865     0.0000     5.0000 </r>
       <r>    -7.2765     0.0000     5.0000 </r>
       <r>    -7.1666     0.0000     5.0000 </r>
       <r>    -7.0566     0.0000     5.0000 </r>
       <r>    -6.9466     0.0000     5.0000 </r>
       <r>    -6.8367     0.0000     5.0000 </r>
       <r>    -6.7267     0.0000     5.0000 </r>
       <r>    -6.6168     0.0000     5.0000 </r>
       <r>    -6.5068     0.0000     5.0000 </r>
       <r>    -6.3968     0.0000     5.0000 </r>
       <r>    -6.2869     0.0000     5.0000 </r>
       <r>    -6.1769     0.0000     5.0000 </r>
       <r>    -6.0669     0.0000     5.0000 </r>
       <r>    -5.9570     0.0000     5.0000 </r>
       <r>    -5.8470     0.0000     5.0000 </r>
       <r>    -5.7370     0.0000     5.0000 </r>
       <r>    -5.6271     0.0000     5.0000 </r>
       <r>    -5.5171     0.0000     5.0000 </r>
       <r>    -5.4072     0.0000     5.0000 </r>
       <r>    -5.2972     0.0000     5.0000 </r>
       <r>    -5.1872     0.0000     5.0000 </r>
       <r>    -5.0773     0.0000     5.0000 </r>
       <r>    -4.9673     0.0000     5.0000 </r>
       <r>    -4.8573     0.0000     5.0000 </r>
       <r>    -4.7474     0.0000     5.0000 </r>
       <r>    -4.6374     0.0000     5.0000 </r>
       <r>    -4.5274     0.0000     5.0000 </r>
       <r>    -4.4175     0.0000     5.0000 </r>
       <r>    -4.3075     0.0000     5.0000 </r>
       <r>    -4.1975     0.0000     5.0000 </r>
       <r>    -4.0876     0.0000     5.0000 </r>
       <r>    -3.9776     0.0000     5.0000 </r>
       <r>    -3.8677     0.0000     5.0000 </r>
       <r>    -3.7577     0.0000     5.0000 </r>
       <r>    -3.6477     0.0000     5.0000 </r>
       <r>    -3.5378     0.0000     5.0000 </r>
       <r>    -3.4278     0.0000     5.0000 </r>
       <r>    -3.3178     0.0000     5.0000 </r>
       <r>    -3.2079     0.0000     5.0000 </r>
       <r>    -3.0979     0.0000     5.0000 </r>
       <r>    -2.9879    -0.0000     5.0000 </r>
       <r>    -2.8780    -0.0000     5.0000 </r>
       <r>    -2.7680    -0.0000     5.0000 </r>
       <r>    -2.6581    -0.0000     5.0000 </r>
       <r>    -2.5481    -0.0000     5.0000 </r>
       <r>    -2.4381    -0.0004     5.0000 </r>
       <r>    -2.3282    -0.0937     4.9897 </r>
       <r>    -2.2182    -0.4118     4.9444 </r>
       <r>    -2.1082    10.6938     6.1203 </r>
       <r>    -1.9983     8.6359     7.0699 </r>
       <r>    -1.8883    -0.5809     7.0061 </r>
       <r>    -1.7783    -0.0550     7.0000 </r>
       <r>    -1.6684    -0.0002     7.0000 </r>
       <r>    -1.5584    -0.0000     7.0000 </r>
       <r>    -1.4484    -0.0000     7.0000 </r>
       <r>    -1.3385     0.0000     7.0000 </r>
       <r>    -1.2285     0.0000     7.0000 </r>
       <r>    -1.1186    -0.0000     7.0000 </r>
       <r>    -1.0086    -0.0000     7.0000 </r>
       <r>    -0.8986    -0.0000     7.0000 </r>
       <r>    -0.7887    -0.0000     7.0000 </r>
       <r>    -0.6787    -0.0000     7.0000 </r>
       <r>    -0.5687    -0.0000     7.0000 </r>
       <r>    -0.4588    -0.0014     6.9998 </r>
       <r>    -0.3488    -0.0360     6.9959 </r>
       <r>    -0.2388     0.2322     7.0214 </r>
       <r>    -0.1289     1.4924     7.1855 </r>
       <r>    -0.0189     3.2690     7.5450 </r>
       <r>     0.0910     3.5446     7.9348 </r>
       <r>     0.2010     0.8770     8.0312 </r>
       <r>     0.3110     2.1973     8.2728 </r>
       <r>     0.4209     5.8700     8.9183 </r>
       <r>     0.5309     7.4907     9.7420 </r>
       <r>     0.6409     1.5105     9.9081 </r>
       <r>     0.7508     0.0250     9.9109 </r>
       <r>     0.8608     0.7698     9.9955 </r>
       <r>     0.9708     0.0552    10.0016 </r>
       <r>     1.0807    -0.0144    10.0000 </r>
       <r>     1.1907    -0.0002    10.0000 </r>
       <r>     1.3007    -0.0000    10.0000 </r>
       <r>     1.4106    -0.0000    10.0000 </r>
       <r>     1.5206     0.0000    10.0000 </r>
       <r>     1.6305     0.0000    10.0000 </r>
       <r>     1.7405     0.0000    10.0000 </r>
       <r>     1.8505     0.0000    10.0000 </r>
       <r>     1.9604     0.0000    10.0000 </r>
       <r>     2.0704     0.0000    10.0000 </r>
       <r>     2.1804     0.0000    10.0000 </r>
       <r>     2.2903     0.0000    10.0000 </r>
      </set>
     </set>
    </array>
   </total>
  </dos>
 </calculation>
 <structure name="finalpos" >
  <crystal>
   <varray name="basis" >
    <v>      10.16000000       0.00000000       0.00000000 </v>
    <v>       0.00000000      11.76000000       0.00000000 </v>
    <v>       0.00000000       0.00000000      15.00000000 </v>
   </varray>
   <i name="volume">   1792.22400000 </i>
   <varray name="rec_basis" >
    <v>       0.09842520       0.00000000       0.00000000 </v>
    <v>       0.00000000       0.08503401       0.00000000 </v>
    <v>       0.00000000       0.00000000       0.06666667 </v>
   </varray>
  </crystal>
  <varray name="positions" >
   <v>       0.00000000       0.00000000       0.00253891 </v>
   <v>       0.00000000       0.00000000       0.07876109 </v>
  </varray>
 </structure>
</modeling>
