Beta12Borophene !The name of the system 
           1
    10.160000    0.000000    0.000000
     0.000000   11.760000    0.000000
     0.000000    0.000000   15.000000
   C    O 
   1   1
Direct configuration=     1
   0.00000000  0.00000000  0.00000000
   0.00000000  0.00000000  0.08130000
Direct configuration=     2
   0.00000000  0.00000000  0.02134163
   0.00000000  0.00000000  0.05995837
Direct configuration=     3
   0.00000000  0.00000000  0.00022063
   0.00000000  0.00000000  0.08107937
Direct configuration=     4
   0.00000000  0.00000000  0.00042431
   0.00000000  0.00000000  0.08087569
Direct configuration=     5
   0.00000000  0.00000000  0.00320869
   0.00000000  0.00000000  0.07809131
Direct configuration=     6
   0.00000000  0.00000000  0.00237892
   0.00000000  0.00000000  0.07892108
Direct configuration=     7
   0.00000000  0.00000000  0.00253332
   0.00000000  0.00000000  0.07876668
Direct configuration=     8
   0.00000000  0.00000000  0.00254775
   0.00000000  0.00000000  0.07875225
Direct configuration=     9
   0.00000000  0.00000000  0.00254350
   0.00000000  0.00000000  0.07875650
Direct configuration=    10
   0.00000000  0.00000000  0.00253891
   0.00000000  0.00000000  0.07876109
