   3   3   0   0
  0.5974080E+03  0.1016000E-08  0.1176000E-08  0.1500000E-08  0.5000000E-15
  1.000000000000000E-004
  CAR 
 Beta12Borophene !The name of the system 
      2.37650337    -30.55680587  301     -8.82476265      1.00000000
    -30.557  0.0000E+00  0.0000E+00  0.0000E+00  0.0000E+00
    -30.447  0.0000E+00  0.0000E+00  0.0000E+00  0.0000E+00
    -30.337  0.0000E+00  0.0000E+00  0.0000E+00  0.0000E+00
    -30.227  0.0000E+00  0.0000E+00  0.0000E+00  0.0000E+00
    -30.118  0.0000E+00  0.0000E+00  0.0000E+00  0.0000E+00
    -30.008  0.0000E+00  0.0000E+00  0.0000E+00  0.0000E+00
    -29.898 -0.6496E-32 -0.1970E-35 -0.7131E-33 -0.2163E-36
    -29.788 -0.1666E-24 -0.1439E-27 -0.1829E-25 -0.1580E-28
    -29.679 -0.3751E-18 -0.9254E-21 -0.4117E-19 -0.1016E-21
    -29.569 -0.7064E-13 -0.5030E-15 -0.7755E-14 -0.5522E-16
    -29.459 -0.1156E-08 -0.2395E-10 -0.1269E-09 -0.2630E-11
    -29.349 -0.1517E-05 -0.9425E-07 -0.1667E-06 -0.1035E-07
    -29.239 -0.1312E-03 -0.2765E-04 -0.1457E-04 -0.3046E-05
    -29.130  0.5025E-03 -0.2910E-03  0.4059E-04 -0.3499E-04
    -29.020  0.7007E-02  0.4305E-02  0.8098E-03  0.4376E-03
    -28.910  0.1986E-02  0.5373E-02  0.1028E-02  0.1027E-02
    -28.800 -0.2463E-03 -0.2016E-03  0.1001E-02  0.1005E-02
    -28.691 -0.6828E-05 -0.4798E-04  0.1000E-02  0.1000E-02
    -28.581 -0.1057E-07 -0.2367E-06  0.1000E-02  0.1000E-02
    -28.471 -0.1972E-09 -0.8581E-10  0.1000E-02  0.1000E-02
    -28.361 -0.4333E-06 -0.1004E-07  0.1000E-02  0.1000E-02
    -28.251 -0.6777E-04 -0.6600E-05  0.9925E-03  0.9993E-03
    -28.142 -0.6913E-04 -0.2436E-03  0.9849E-03  0.9725E-03
    -28.032  0.6022E-02  0.1941E-02  0.1646E-02  0.1186E-02
    -27.922  0.3545E-02  0.7026E-02  0.2035E-02  0.1957E-02
    -27.812 -0.3015E-03  0.5285E-03  0.2002E-02  0.2015E-02
    -27.703 -0.1836E-04 -0.1337E-03  0.2000E-02  0.2000E-02
    -27.593 -0.4877E-07 -0.1577E-05  0.2000E-02  0.2000E-02
    -27.483 -0.9820E-11 -0.1222E-08  0.2000E-02  0.2000E-02
    -27.373 -0.1638E-15 -0.7594E-13  0.2000E-02  0.2000E-02
    -27.263  0.0000E+00  0.0000E+00  0.2000E-02  0.2000E-02
    -27.154  0.0000E+00  0.0000E+00  0.2000E-02  0.2000E-02
    -27.044  0.0000E+00  0.0000E+00  0.2000E-02  0.2000E-02
    -26.934  0.0000E+00  0.0000E+00  0.2000E-02  0.2000E-02
    -26.824  0.0000E+00  0.0000E+00  0.2000E-02  0.2000E-02
    -26.715  0.0000E+00  0.0000E+00  0.2000E-02  0.2000E-02
    -26.605  0.0000E+00  0.0000E+00  0.2000E-02  0.2000E-02
    -26.495  0.0000E+00  0.0000E+00  0.2000E-02  0.2000E-02
    -26.385  0.0000E+00  0.0000E+00  0.2000E-02  0.2000E-02
    -26.275  0.0000E+00  0.0000E+00  0.2000E-02  0.2000E-02
    -26.166  0.0000E+00  0.0000E+00  0.2000E-02  0.2000E-02
    -26.056  0.0000E+00  0.0000E+00  0.2000E-02  0.2000E-02
    -25.946  0.0000E+00  0.0000E+00  0.2000E-02  0.2000E-02
    -25.836  0.0000E+00  0.0000E+00  0.2000E-02  0.2000E-02
    -25.727  0.0000E+00  0.0000E+00  0.2000E-02  0.2000E-02
    -25.617  0.0000E+00  0.0000E+00  0.2000E-02  0.2000E-02
    -25.507  0.0000E+00  0.0000E+00  0.2000E-02  0.2000E-02
    -25.397  0.0000E+00  0.0000E+00  0.2000E-02  0.2000E-02
    -25.287  0.0000E+00  0.0000E+00  0.2000E-02  0.2000E-02
    -25.178  0.0000E+00  0.0000E+00  0.2000E-02  0.2000E-02
    -25.068  0.0000E+00  0.0000E+00  0.2000E-02  0.2000E-02
    -24.958  0.0000E+00  0.0000E+00  0.2000E-02  0.2000E-02
    -24.848  0.0000E+00  0.0000E+00  0.2000E-02  0.2000E-02
    -24.739  0.0000E+00  0.0000E+00  0.2000E-02  0.2000E-02
    -24.629  0.0000E+00  0.0000E+00  0.2000E-02  0.2000E-02
    -24.519  0.0000E+00  0.0000E+00  0.2000E-02  0.2000E-02
    -24.409  0.0000E+00  0.0000E+00  0.2000E-02  0.2000E-02
    -24.299  0.0000E+00  0.0000E+00  0.2000E-02  0.2000E-02
    -24.190  0.0000E+00  0.0000E+00  0.2000E-02  0.2000E-02
    -24.080  0.0000E+00  0.0000E+00  0.2000E-02  0.2000E-02
    -23.970  0.0000E+00  0.0000E+00  0.2000E-02  0.2000E-02
    -23.860  0.0000E+00  0.0000E+00  0.2000E-02  0.2000E-02
    -23.751  0.0000E+00  0.0000E+00  0.2000E-02  0.2000E-02
    -23.641  0.0000E+00  0.0000E+00  0.2000E-02  0.2000E-02
    -23.531  0.0000E+00  0.0000E+00  0.2000E-02  0.2000E-02
    -23.421  0.0000E+00  0.0000E+00  0.2000E-02  0.2000E-02
    -23.311  0.0000E+00  0.0000E+00  0.2000E-02  0.2000E-02
    -23.202  0.0000E+00  0.0000E+00  0.2000E-02  0.2000E-02
    -23.092  0.0000E+00  0.0000E+00  0.2000E-02  0.2000E-02
    -22.982  0.0000E+00  0.0000E+00  0.2000E-02  0.2000E-02
    -22.872  0.0000E+00  0.0000E+00  0.2000E-02  0.2000E-02
    -22.763  0.0000E+00  0.0000E+00  0.2000E-02  0.2000E-02
    -22.653  0.0000E+00  0.0000E+00  0.2000E-02  0.2000E-02
    -22.543  0.0000E+00  0.0000E+00  0.2000E-02  0.2000E-02
    -22.433  0.0000E+00  0.0000E+00  0.2000E-02  0.2000E-02
    -22.323  0.0000E+00  0.0000E+00  0.2000E-02  0.2000E-02
    -22.214  0.0000E+00  0.0000E+00  0.2000E-02  0.2000E-02
    -22.104  0.0000E+00  0.0000E+00  0.2000E-02  0.2000E-02
    -21.994  0.0000E+00  0.0000E+00  0.2000E-02  0.2000E-02
    -21.884  0.0000E+00  0.0000E+00  0.2000E-02  0.2000E-02
    -21.775  0.0000E+00  0.0000E+00  0.2000E-02  0.2000E-02
    -21.665  0.0000E+00  0.0000E+00  0.2000E-02  0.2000E-02
    -21.555  0.0000E+00  0.0000E+00  0.2000E-02  0.2000E-02
    -21.445  0.0000E+00  0.0000E+00  0.2000E-02  0.2000E-02
    -21.335  0.0000E+00  0.0000E+00  0.2000E-02  0.2000E-02
    -21.226  0.0000E+00  0.0000E+00  0.2000E-02  0.2000E-02
    -21.116  0.0000E+00  0.0000E+00  0.2000E-02  0.2000E-02
    -21.006  0.0000E+00  0.0000E+00  0.2000E-02  0.2000E-02
    -20.896  0.0000E+00  0.0000E+00  0.2000E-02  0.2000E-02
    -20.787  0.0000E+00  0.0000E+00  0.2000E-02  0.2000E-02
    -20.677  0.0000E+00  0.0000E+00  0.2000E-02  0.2000E-02
    -20.567  0.0000E+00  0.0000E+00  0.2000E-02  0.2000E-02
    -20.457  0.0000E+00  0.0000E+00  0.2000E-02  0.2000E-02
    -20.347  0.0000E+00  0.0000E+00  0.2000E-02  0.2000E-02
    -20.238  0.0000E+00  0.0000E+00  0.2000E-02  0.2000E-02
    -20.128  0.0000E+00  0.0000E+00  0.2000E-02  0.2000E-02
    -20.018  0.0000E+00  0.0000E+00  0.2000E-02  0.2000E-02
    -19.908  0.0000E+00  0.0000E+00  0.2000E-02  0.2000E-02
    -19.799  0.0000E+00  0.0000E+00  0.2000E-02  0.2000E-02
    -19.689  0.0000E+00  0.0000E+00  0.2000E-02  0.2000E-02
    -19.579  0.0000E+00  0.0000E+00  0.2000E-02  0.2000E-02
    -19.469  0.0000E+00  0.0000E+00  0.2000E-02  0.2000E-02
    -19.359  0.0000E+00  0.0000E+00  0.2000E-02  0.2000E-02
    -19.250  0.0000E+00  0.0000E+00  0.2000E-02  0.2000E-02
    -19.140  0.0000E+00  0.0000E+00  0.2000E-02  0.2000E-02
    -19.030  0.0000E+00  0.0000E+00  0.2000E-02  0.2000E-02
    -18.920  0.0000E+00  0.0000E+00  0.2000E-02  0.2000E-02
    -18.811  0.0000E+00  0.0000E+00  0.2000E-02  0.2000E-02
    -18.701  0.0000E+00  0.0000E+00  0.2000E-02  0.2000E-02
    -18.591  0.0000E+00  0.0000E+00  0.2000E-02  0.2000E-02
    -18.481  0.0000E+00  0.0000E+00  0.2000E-02  0.2000E-02
    -18.371  0.0000E+00  0.0000E+00  0.2000E-02  0.2000E-02
    -18.262  0.0000E+00  0.0000E+00  0.2000E-02  0.2000E-02
    -18.152  0.0000E+00  0.0000E+00  0.2000E-02  0.2000E-02
    -18.042  0.0000E+00  0.0000E+00  0.2000E-02  0.2000E-02
    -17.932  0.0000E+00  0.0000E+00  0.2000E-02  0.2000E-02
    -17.823  0.0000E+00  0.0000E+00  0.2000E-02  0.2000E-02
    -17.713  0.0000E+00  0.0000E+00  0.2000E-02  0.2000E-02
    -17.603  0.0000E+00  0.0000E+00  0.2000E-02  0.2000E-02
    -17.493  0.0000E+00  0.0000E+00  0.2000E-02  0.2000E-02
    -17.383  0.0000E+00  0.0000E+00  0.2000E-02  0.2000E-02
    -17.274  0.0000E+00  0.0000E+00  0.2000E-02  0.2000E-02
    -17.164  0.0000E+00  0.0000E+00  0.2000E-02  0.2000E-02
    -17.054  0.0000E+00  0.0000E+00  0.2000E-02  0.2000E-02
    -16.944  0.0000E+00  0.0000E+00  0.2000E-02  0.2000E-02
    -16.835  0.0000E+00  0.0000E+00  0.2000E-02  0.2000E-02
    -16.725  0.0000E+00  0.0000E+00  0.2000E-02  0.2000E-02
    -16.615  0.0000E+00  0.0000E+00  0.2000E-02  0.2000E-02
    -16.505  0.0000E+00  0.0000E+00  0.2000E-02  0.2000E-02
    -16.395  0.0000E+00  0.0000E+00  0.2000E-02  0.2000E-02
    -16.286  0.0000E+00  0.0000E+00  0.2000E-02  0.2000E-02
    -16.176  0.0000E+00  0.0000E+00  0.2000E-02  0.2000E-02
    -16.066  0.0000E+00  0.0000E+00  0.2000E-02  0.2000E-02
    -15.956  0.0000E+00  0.0000E+00  0.2000E-02  0.2000E-02
    -15.847  0.0000E+00  0.0000E+00  0.2000E-02  0.2000E-02
    -15.737  0.0000E+00  0.0000E+00  0.2000E-02  0.2000E-02
    -15.627  0.0000E+00  0.0000E+00  0.2000E-02  0.2000E-02
    -15.517  0.0000E+00  0.0000E+00  0.2000E-02  0.2000E-02
    -15.407  0.0000E+00  0.0000E+00  0.2000E-02  0.2000E-02
    -15.298  0.0000E+00  0.0000E+00  0.2000E-02  0.2000E-02
    -15.188  0.0000E+00  0.0000E+00  0.2000E-02  0.2000E-02
    -15.078  0.0000E+00  0.0000E+00  0.2000E-02  0.2000E-02
    -14.968  0.0000E+00  0.0000E+00  0.2000E-02  0.2000E-02
    -14.859  0.0000E+00  0.0000E+00  0.2000E-02  0.2000E-02
    -14.749  0.0000E+00  0.0000E+00  0.2000E-02  0.2000E-02
    -14.639  0.0000E+00  0.0000E+00  0.2000E-02  0.2000E-02
    -14.529 -0.2217E-33 -0.7124E-36  0.2000E-02  0.2000E-02
    -14.419 -0.8862E-26 -0.5912E-28  0.2000E-02  0.2000E-02
    -14.310 -0.3112E-19 -0.4319E-21  0.2000E-02  0.2000E-02
    -14.200 -0.9192E-14 -0.2671E-15  0.2000E-02  0.2000E-02
    -14.090 -0.2366E-09 -0.1448E-10  0.2000E-02  0.2000E-02
    -13.980 -0.4959E-06 -0.6501E-07  0.2000E-02  0.2000E-02
    -13.871 -0.7306E-04 -0.2198E-04  0.1992E-02  0.1998E-02
    -13.761 -0.2889E-04 -0.3009E-03  0.1989E-02  0.1965E-02
    -13.651  0.6155E-02  0.3873E-02  0.2664E-02  0.2390E-02
    -13.541  0.3373E-02  0.5753E-02  0.3035E-02  0.3021E-02
    -13.431 -0.2998E-03 -0.1347E-03  0.3002E-02  0.3006E-02
    -13.322 -0.1666E-04 -0.5857E-04  0.3000E-02  0.3000E-02
    -13.212 -0.4182E-07 -0.3346E-06  0.3000E-02  0.3000E-02
    -13.102 -0.7985E-11 -0.1366E-09  0.3000E-02  0.3000E-02
    -12.992 -0.1891E-10 -0.3090E-12  0.3000E-02  0.3000E-02
    -12.883 -0.9560E-07 -0.4219E-08  0.3000E-02  0.3000E-02
    -12.773 -0.3738E-04 -0.4739E-05  0.2996E-02  0.2999E-02
    -12.663 -0.7267E-03 -0.3595E-03  0.2916E-02  0.2960E-02
    -12.553  0.7452E-02  0.1370E-02  0.3734E-02  0.3110E-02
    -12.443  0.1904E-01  0.1941E-01  0.5825E-02  0.5241E-02
    -12.334  0.1996E-02  0.7665E-02  0.6044E-02  0.6082E-02
    -12.224 -0.3916E-03 -0.7089E-03  0.6001E-02  0.6005E-02
    -12.114 -0.8415E-05 -0.4191E-04  0.6000E-02  0.6000E-02
    -12.004 -0.1265E-07 -0.1348E-06  0.6000E-02  0.6000E-02
    -11.895 -0.1565E-11 -0.3553E-10  0.6000E-02  0.6000E-02
    -11.785 -0.1618E-16 -0.8037E-15  0.6000E-02  0.6000E-02
    -11.675  0.0000E+00  0.0000E+00  0.6000E-02  0.6000E-02
    -11.565  0.0000E+00  0.0000E+00  0.6000E-02  0.6000E-02
    -11.455  0.0000E+00  0.0000E+00  0.6000E-02  0.6000E-02
    -11.346  0.0000E+00  0.0000E+00  0.6000E-02  0.6000E-02
    -11.236  0.0000E+00  0.0000E+00  0.6000E-02  0.6000E-02
    -11.126  0.0000E+00  0.0000E+00  0.6000E-02  0.6000E-02
    -11.016  0.0000E+00  0.0000E+00  0.6000E-02  0.6000E-02
    -10.907  0.0000E+00  0.0000E+00  0.6000E-02  0.6000E-02
    -10.797  0.0000E+00  0.0000E+00  0.6000E-02  0.6000E-02
    -10.687  0.0000E+00  0.0000E+00  0.6000E-02  0.6000E-02
    -10.577  0.0000E+00  0.0000E+00  0.6000E-02  0.6000E-02
    -10.467  0.0000E+00  0.0000E+00  0.6000E-02  0.6000E-02
    -10.358  0.0000E+00  0.0000E+00  0.6000E-02  0.6000E-02
    -10.248  0.0000E+00  0.0000E+00  0.6000E-02  0.6000E-02
    -10.138  0.0000E+00  0.0000E+00  0.6000E-02  0.6000E-02
    -10.028  0.0000E+00  0.0000E+00  0.6000E-02  0.6000E-02
     -9.919  0.0000E+00  0.0000E+00  0.6000E-02  0.6000E-02
     -9.809 -0.2145E-30 -0.6835E-37  0.6000E-02  0.6000E-02
     -9.699 -0.3775E-23 -0.8256E-29  0.6000E-02  0.6000E-02
     -9.589 -0.5822E-17 -0.8786E-22  0.6000E-02  0.6000E-02
     -9.479 -0.7481E-12 -0.7981E-16  0.6000E-02  0.6000E-02
     -9.370 -0.8316E-08 -0.6304E-11  0.6000E-02  0.6000E-02
     -9.260 -0.7311E-05 -0.4177E-07  0.5999E-02  0.6000E-02
     -9.150 -0.3909E-03 -0.2134E-04  0.5956E-02  0.5998E-02
     -9.040  0.2487E-02 -0.5580E-03  0.6229E-02  0.5936E-02
     -8.931  0.1441E-01  0.5268E-02  0.7812E-02  0.6515E-02
     -8.821  0.2081E-02  0.1333E-01  0.8040E-02  0.7978E-02
     -8.711 -0.3585E-03  0.4002E-03  0.8001E-02  0.8022E-02
     -8.601 -0.5956E-05 -0.2001E-03  0.8000E-02  0.8000E-02
     -8.491 -0.6151E-08 -0.1779E-05  0.8000E-02  0.8000E-02
     -8.382 -0.5043E-12 -0.1078E-08  0.8000E-02  0.8000E-02
     -8.272 -0.4045E-17 -0.5282E-13  0.8000E-02  0.8000E-02
     -8.162  0.0000E+00  0.0000E+00  0.8000E-02  0.8000E-02
     -8.052  0.0000E+00  0.0000E+00  0.8000E-02  0.8000E-02
     -7.943  0.0000E+00  0.0000E+00  0.8000E-02  0.8000E-02
     -7.833  0.0000E+00  0.0000E+00  0.8000E-02  0.8000E-02
     -7.723  0.0000E+00  0.0000E+00  0.8000E-02  0.8000E-02
     -7.613  0.0000E+00  0.0000E+00  0.8000E-02  0.8000E-02
     -7.503  0.0000E+00  0.0000E+00  0.8000E-02  0.8000E-02
     -7.394  0.0000E+00  0.0000E+00  0.8000E-02  0.8000E-02
     -7.284  0.0000E+00  0.0000E+00  0.8000E-02  0.8000E-02
     -7.174  0.0000E+00  0.0000E+00  0.8000E-02  0.8000E-02
     -7.064  0.0000E+00  0.0000E+00  0.8000E-02  0.8000E-02
     -6.955  0.0000E+00  0.0000E+00  0.8000E-02  0.8000E-02
     -6.845  0.0000E+00  0.0000E+00  0.8000E-02  0.8000E-02
     -6.735  0.0000E+00  0.0000E+00  0.8000E-02  0.8000E-02
     -6.625  0.0000E+00  0.0000E+00  0.8000E-02  0.8000E-02
     -6.515  0.0000E+00  0.0000E+00  0.8000E-02  0.8000E-02
     -6.406  0.0000E+00  0.0000E+00  0.8000E-02  0.8000E-02
     -6.296  0.0000E+00  0.0000E+00  0.8000E-02  0.8000E-02
     -6.186  0.0000E+00  0.0000E+00  0.8000E-02  0.8000E-02
     -6.076  0.0000E+00  0.0000E+00  0.8000E-02  0.8000E-02
     -5.967  0.0000E+00  0.0000E+00  0.8000E-02  0.8000E-02
     -5.857  0.0000E+00  0.0000E+00  0.8000E-02  0.8000E-02
     -5.747  0.0000E+00  0.0000E+00  0.8000E-02  0.8000E-02
     -5.637  0.0000E+00  0.0000E+00  0.8000E-02  0.8000E-02
     -5.527  0.0000E+00  0.0000E+00  0.8000E-02  0.8000E-02
     -5.418  0.0000E+00  0.0000E+00  0.8000E-02  0.8000E-02
     -5.308  0.0000E+00  0.0000E+00  0.8000E-02  0.8000E-02
     -5.198  0.0000E+00  0.0000E+00  0.8000E-02  0.8000E-02
     -5.088  0.0000E+00  0.0000E+00  0.8000E-02  0.8000E-02
     -4.979  0.0000E+00  0.0000E+00  0.8000E-02  0.8000E-02
     -4.869  0.0000E+00  0.0000E+00  0.8000E-02  0.8000E-02
     -4.759  0.0000E+00  0.0000E+00  0.8000E-02  0.8000E-02
     -4.649  0.0000E+00  0.0000E+00  0.8000E-02  0.8000E-02
     -4.539  0.0000E+00  0.0000E+00  0.8000E-02  0.8000E-02
     -4.430  0.0000E+00  0.0000E+00  0.8000E-02  0.8000E-02
     -4.320  0.0000E+00  0.0000E+00  0.8000E-02  0.8000E-02
     -4.210  0.0000E+00  0.0000E+00  0.8000E-02  0.8000E-02
     -4.100  0.0000E+00  0.0000E+00  0.8000E-02  0.8000E-02
     -3.991  0.0000E+00  0.0000E+00  0.8000E-02  0.8000E-02
     -3.881  0.0000E+00  0.0000E+00  0.8000E-02  0.8000E-02
     -3.771  0.0000E+00  0.0000E+00  0.8000E-02  0.8000E-02
     -3.661  0.0000E+00  0.0000E+00  0.8000E-02  0.8000E-02
     -3.551  0.0000E+00  0.0000E+00  0.8000E-02  0.8000E-02
     -3.442  0.0000E+00  0.0000E+00  0.8000E-02  0.8000E-02
     -3.332  0.0000E+00  0.0000E+00  0.8000E-02  0.8000E-02
     -3.222  0.0000E+00  0.0000E+00  0.8000E-02  0.8000E-02
     -3.112  0.0000E+00  0.0000E+00  0.8000E-02  0.8000E-02
     -3.003  0.0000E+00  0.0000E+00  0.8000E-02  0.8000E-02
     -2.893  0.0000E+00  0.0000E+00  0.8000E-02  0.8000E-02
     -2.783  0.0000E+00  0.0000E+00  0.8000E-02  0.8000E-02
     -2.673  0.0000E+00  0.0000E+00  0.8000E-02  0.8000E-02
     -2.563  0.0000E+00  0.0000E+00  0.8000E-02  0.8000E-02
     -2.454  0.0000E+00  0.0000E+00  0.8000E-02  0.8000E-02
     -2.344  0.0000E+00  0.0000E+00  0.8000E-02  0.8000E-02
     -2.234  0.0000E+00  0.0000E+00  0.8000E-02  0.8000E-02
     -2.124  0.0000E+00  0.0000E+00  0.8000E-02  0.8000E-02
     -2.015  0.0000E+00  0.0000E+00  0.8000E-02  0.8000E-02
     -1.905  0.0000E+00  0.0000E+00  0.8000E-02  0.8000E-02
     -1.795 -0.1642E-34 -0.6287E-35  0.8000E-02  0.8000E-02
     -1.685 -0.7293E-27 -0.3150E-27  0.8000E-02  0.8000E-02
     -1.575 -0.2904E-20 -0.1414E-20  0.8000E-02  0.8000E-02
     -1.466 -0.1004E-14 -0.5518E-15  0.8000E-02  0.8000E-02
     -1.356 -0.3183E-10 -0.1972E-10  0.8000E-02  0.8000E-02
     -1.246 -0.8986E-07 -0.6286E-07  0.8000E-02  0.8000E-02
     -1.136 -0.2147E-04 -0.1708E-04  0.7998E-02  0.7998E-02
     -1.027 -0.2434E-03 -0.2436E-03  0.7971E-02  0.7971E-02
     -0.917  0.3310E-02  0.2907E-02  0.8334E-02  0.8291E-02
     -0.807  0.6015E-02  0.6282E-02  0.8995E-02  0.8980E-02
     -0.697 -0.5835E-04  0.2117E-03  0.8988E-02  0.9003E-02
     -0.587  0.2555E-03 -0.6233E-03  0.9016E-02  0.8935E-02
     -0.478  0.1323E-01  0.9677E-02  0.1047E-01  0.9997E-02
     -0.368  0.5424E-02  0.9725E-02  0.1106E-01  0.1106E-01
     -0.258 -0.5642E-03 -0.5169E-03  0.1100E-01  0.1101E-01
     -0.148 -0.2244E-04 -0.7380E-04  0.1100E-01  0.1100E-01
     -0.039 -0.5123E-06 -0.1239E-05  0.1100E-01  0.1100E-01
      0.071 -0.3273E-04 -0.4499E-04  0.1100E-01  0.1099E-01
      0.181  0.3101E-04  0.1393E-03  0.1100E-01  0.1101E-01
      0.291  0.2049E-02  0.2393E-02  0.1122E-01  0.1127E-01
      0.401  0.5194E-02  0.5376E-02  0.1179E-01  0.1186E-01
      0.510  0.5581E-02  0.5323E-02  0.1241E-01  0.1245E-01
      0.620  0.7280E-02  0.7221E-02  0.1321E-01  0.1324E-01
      0.730  0.2574E-02  0.2442E-02  0.1349E-01  0.1351E-01
      0.840  0.2302E-02  0.2420E-02  0.1374E-01  0.1377E-01
      0.949  0.2339E-02  0.2099E-02  0.1400E-01  0.1400E-01
      1.059  0.4529E-04 -0.1212E-04  0.1400E-01  0.1400E-01
      1.169 -0.3437E-04 -0.2652E-04  0.1400E-01  0.1400E-01
      1.279 -0.3581E-06 -0.2122E-06  0.1400E-01  0.1400E-01
      1.389 -0.2635E-09 -0.1225E-09  0.1400E-01  0.1400E-01
      1.498 -0.1588E-13 -0.5840E-14  0.1400E-01  0.1400E-01
      1.608  0.0000E+00  0.0000E+00  0.1400E-01  0.1400E-01
      1.718  0.0000E+00  0.0000E+00  0.1400E-01  0.1400E-01
      1.828  0.0000E+00  0.0000E+00  0.1400E-01  0.1400E-01
      1.937  0.0000E+00  0.0000E+00  0.1400E-01  0.1400E-01
      2.047  0.0000E+00  0.0000E+00  0.1400E-01  0.1400E-01
      2.157  0.0000E+00  0.0000E+00  0.1400E-01  0.1400E-01
      2.267  0.0000E+00  0.0000E+00  0.1400E-01  0.1400E-01
      2.377  0.0000E+00  0.0000E+00  0.1400E-01  0.1400E-01
