    3    3 1000    2
  0.5974080E+03  0.1016000E-08  0.1176000E-08  0.1500000E-08  0.5000000E-15
  1.000000000000000E-004
  CAR 
 Beta12Borophene !The name of the system 
   16    5   14
 
  0.0000000E+00  0.0000000E+00  0.2500000E+00  0.1111111E+00
   1      -29.059828    -29.012519
   2      -28.049456    -27.991274
   3      -13.670916    -13.637894
   4      -12.535309    -12.491111
   5      -12.535212    -12.491105
   6      -12.481288    -12.446706
   7       -8.987604     -8.900461
   8       -8.987440     -8.900446
   9       -0.933811     -0.928261
  10       -0.507483     -0.478343
  11       -0.507269     -0.478179
  12        0.233071      0.218739
  13        0.588764      0.579845
  14        0.842613      0.840293
 
  0.3333333E+00  0.0000000E+00  0.2500000E+00  0.2222222E+00
   1      -29.059837    -29.012529
   2      -28.049470    -27.991288
   3      -13.670900    -13.637878
   4      -12.535308    -12.491111
   5      -12.535211    -12.491104
   6      -12.481322    -12.446740
   7       -8.987618     -8.900476
   8       -8.987447     -8.900453
   9       -0.892823     -0.886802
  10       -0.506466     -0.477239
  11       -0.506144     -0.476971
  12        0.341282      0.328550
  13        0.501061      0.494286
  14        0.879535      0.869478
 
  0.0000000E+00  0.3333333E+00  0.2500000E+00  0.2222222E+00
   1      -29.059821    -29.012513
   2      -28.049466    -27.991285
   3      -13.670916    -13.637894
   4      -12.535310    -12.491113
   5      -12.535207    -12.491100
   6      -12.481292    -12.446710
   7       -8.987611     -8.900468
   8       -8.987436     -8.900442
   9       -0.915800     -0.909846
  10       -0.507489     -0.478351
  11       -0.507443     -0.478341
  12        0.285900      0.273339
  13        0.421302      0.413164
  14        0.782646      0.766269
 
  0.3333333E+00  0.3333333E+00  0.2500000E+00  0.2222222E+00
   1      -29.059831    -29.012522
   2      -28.049461    -27.991279
   3      -13.670900    -13.637877
   4      -12.535309    -12.491112
   5      -12.535208    -12.491101
   6      -12.481321    -12.446740
   7       -8.987617     -8.900474
   8       -8.987447     -8.900453
   9       -0.877555     -0.871226
  10       -0.506459     -0.477269
  11       -0.506389     -0.477164
  12        0.407607      0.396014
  13        0.565975      0.558506
  14        0.606077      0.602233
 
 -0.3333333E+00  0.3333333E+00  0.2500000E+00  0.2222222E+00
   1      -29.059830    -29.012521
   2      -28.049460    -27.991278
   3      -13.670898    -13.637875
   4      -12.535309    -12.491112
   5      -12.535208    -12.491101
   6      -12.481322    -12.446741
   7       -8.987616     -8.900474
   8       -8.987447     -8.900453
   9       -0.877560     -0.871232
  10       -0.506450     -0.477260
  11       -0.506385     -0.477161
  12        0.408292      0.396761
  13        0.565581      0.558149
  14        0.605407      0.601421
