 vasp.5.3.3 18Dez12 (build Aug 26 2015 16:06:49) complex                        
  
 executed on             LinuxIFC date 2020.05.07  16:09:59
 running on    4 total cores
 distrk:  each k-point on    4 cores,    1 groups
 distr:  one band on NCORES_PER_BAND=   4 cores,    1 groups


--------------------------------------------------------------------------------------------------------


 INCAR:
 POTCAR:    PAW_PBE C 08Apr2002                   
 POTCAR:    PAW_PBE O 08Apr2002                   
 POTCAR:    PAW_PBE C 08Apr2002                   
   SHA256 =  253f7b50bb8d59471dbedb8285d89021f4a42ed1a2c5d38a03a736e69125dd95 C/
   COPYR  = (c) Copyright 08Apr2002 Georg Kresse                                
   COPYR  = This file is part of the software VASP. Any use, copying, and all ot
   COPYR  = If you do not have a valid VASP license, you may not use, copy or di
   VRHFIN =C: s2p2                                                              
   LEXCH  = PE                                                                  
   EATOM  =   147.1560 eV,   10.8157 Ry                                         
                                                                                
   TITEL  = PAW_PBE C 08Apr2002                                                 
   LULTRA =        F    use ultrasoft PP ?                                      
   IUNSCR =        1    unscreen: 0-lin 1-nonlin 2-no                           
   RPACOR =    1.200    partial core radius                                     
   POMASS =   12.011; ZVAL   =    4.000    mass and valenz                      
   RCORE  =    1.500    outmost cutoff radius                                   
   RWIGS  =    1.630; RWIGS  =    0.863    wigner-seitz radius (au A)           
   ENMAX  =  400.000; ENMIN  =  300.000 eV                                      
   ICORE  =        2    local potential                                         
   LCOR   =        T    correct aug charges                                     
   LPAW   =        T    paw PP                                                  
   EAUG   =  644.873                                                            
   DEXC   =    0.000                                                            
   RMAX   =    1.529    core radius for proj-oper                               
   RAUG   =    1.300    factor for augmentation sphere                          
   RDEP   =    1.501    radius for radial grids                                 
   RDEPT  =    1.300    core radius for aug-charge                              
                                                                                
   Atomic configuration                                                         
    4 entries                                                                   
     n  l   j            E        occ.                                          
     1  0  0.50      -273.3789   2.0000                                         
     2  0  0.50       -13.7508   2.0000                                         
     2  1  0.50        -5.2854   2.0000                                         
     3  2  1.50        -5.4423   0.0000                                         
   Description                                                                  
     l       E           TYP  RCUT    TYP  RCUT                                 
     0    -13.7508458     23  1.200                                             
     0     -8.2022199     23  1.200                                             
     1     -5.2854383     23  1.500                                             
     1     34.0145650     23  1.500                                             
     2     -5.4423304      7  1.500                                             
  local pseudopotential read in
  partial core-charges read in
  partial kinetic energy density read in
  atomic valenz-charges read in
  non local Contribution for L=           0  read in
    real space projection operators read in
  non local Contribution for L=           0  read in
    real space projection operators read in
  non local Contribution for L=           1  read in
    real space projection operators read in
  non local Contribution for L=           1  read in
    real space projection operators read in
    PAW grid and wavefunctions read in
 
   number of l-projection  operators is LMAX  =           4
   number of lm-projection operators is LMMAX =           8
 
 POTCAR:    PAW_PBE O 08Apr2002                   
   SHA256 =  818f92134a0a090dccd8ba1447fa70422a3b330e708bb4f08108d8ae51209ddf O/
   COPYR  = (c) Copyright 08Apr2002 Georg Kresse                                
   COPYR  = This file is part of the software VASP. Any use, copying, and all ot
   COPYR  = If you do not have a valid VASP license, you may not use, copy or di
   VRHFIN =O: s2p4                                                              
   LEXCH  = PE                                                                  
   EATOM  =   432.3788 eV,   31.7789 Ry                                         
                                                                                
   TITEL  = PAW_PBE O 08Apr2002                                                 
   LULTRA =        F    use ultrasoft PP ?                                      
   IUNSCR =        1    unscreen: 0-lin 1-nonlin 2-no                           
   RPACOR =    1.200    partial core radius                                     
   POMASS =   16.000; ZVAL   =    6.000    mass and valenz                      
   RCORE  =    1.520    outmost cutoff radius                                   
   RWIGS  =    1.550; RWIGS  =    0.820    wigner-seitz radius (au A)           
   ENMAX  =  400.000; ENMIN  =  300.000 eV                                      
   ICORE  =        2    local potential                                         
   LCOR   =        T    correct aug charges                                     
   LPAW   =        T    paw PP                                                  
   EAUG   =  605.392                                                            
   DEXC   =    0.000                                                            
   RMAX   =    1.553    core radius for proj-oper                               
   RAUG   =    1.300    factor for augmentation sphere                          
   RDEP   =    1.550    radius for radial grids                                 
   RDEPT  =    1.329    core radius for aug-charge                              
                                                                                
   Atomic configuration                                                         
    4 entries                                                                   
     n  l   j            E        occ.                                          
     1  0  0.50      -514.6923   2.0000                                         
     2  0  0.50       -23.9615   2.0000                                         
     2  1  0.50        -9.0305   4.0000                                         
     3  2  1.50        -9.5241   0.0000                                         
   Description                                                                  
     l       E           TYP  RCUT    TYP  RCUT                                 
     0    -23.9615318     23  1.200                                             
     0     -9.5240782     23  1.200                                             
     1     -9.0304911     23  1.520                                             
     1      8.1634956     23  1.520                                             
     2     -9.5240782      7  1.500                                             
  local pseudopotential read in
  partial core-charges read in
  partial kinetic energy density read in
  kinetic energy density of atom read in
  atomic valenz-charges read in
  non local Contribution for L=           0  read in
    real space projection operators read in
  non local Contribution for L=           0  read in
    real space projection operators read in
  non local Contribution for L=           1  read in
    real space projection operators read in
  non local Contribution for L=           1  read in
    real space projection operators read in
    PAW grid and wavefunctions read in
 
   number of l-projection  operators is LMAX  =           4
   number of lm-projection operators is LMMAX =           8
 

 ----------------------------------------------------------------------------- 
|                                                                             |
|  ADVICE TO THIS USER RUNNING 'VASP/VAMP'   (HEAR YOUR MASTER'S VOICE ...):  |
|                                                                             |
|      You have a (more or less) 'small supercell' and for smaller cells      |
|      it is recommended  to use the reciprocal-space projection scheme!      |
|      The real space optimization is not  efficient for small cells and it   |
|      is also less accurate ...                                              |
|      Therefore set LREAL=.FALSE. in the  INCAR file                         |
|                                                                             |
 ----------------------------------------------------------------------------- 

 Optimization of the real space projectors (new method)

 maximal supplied QI-value         = 25.13
 optimisation between [QCUT,QGAM] = [ 11.31, 22.87] = [ 35.82,146.48] Ry 
 Optimized for a Real-space Cutoff    1.00 Angstroem

   l    n(q)    QCUT    max X(q) W(low)/X(q) W(high)/X(q)  e(spline) 
   0      7    11.310   115.676    0.43E-03    0.13E-02    0.19E-06
   0      7    11.310    87.132    0.43E-03    0.13E-02    0.18E-06
   1      6    11.310     4.429    0.42E-03    0.74E-03    0.11E-06
   1      6    11.310     2.733    0.34E-03    0.55E-03    0.92E-07
 Optimization of the real space projectors (new method)

 maximal supplied QI-value         = 24.76
 optimisation between [QCUT,QGAM] = [ 11.39, 22.77] = [ 36.31,145.25] Ry 
 Optimized for a Real-space Cutoff    1.00 Angstroem

   l    n(q)    QCUT    max X(q) W(low)/X(q) W(high)/X(q)  e(spline) 
   0      7    11.387    20.381    0.39E-03    0.13E-02    0.15E-06
   0      7    11.387    15.268    0.42E-03    0.14E-02    0.17E-06
   1      6    11.387     5.964    0.41E-03    0.11E-02    0.17E-06
   1      6    11.387     5.382    0.39E-03    0.87E-03    0.15E-06
  PAW_PBE C 08Apr2002                   :
 energy of atom  1       EATOM= -147.1560
 kinetic energy error for atom=    0.0076 (will be added to EATOM!!)
  PAW_PBE O 08Apr2002                   :
 energy of atom  2       EATOM= -432.3788
 kinetic energy error for atom=    0.0224 (will be added to EATOM!!)
 
 
 POSCAR: MoleculeAdsorption                      
  positions in direct lattice
  velocities in cartesian coordinates
  No initial velocities read in
 exchange correlation table for  LEXCH =        8
   RHO(1)=    0.500       N(1)  =     2000
   RHO(2)=  100.500       N(2)  =     4000
 


--------------------------------------------------------------------------------------------------------


 ion  position               nearest neighbor table
   1  0.000  0.000  0.000-   3 1.20   2 1.20
   2  0.882  0.003  0.000-   1 1.20
   3  0.118  0.997  0.000-   1 1.20
 
  LATTYP: Found a simple orthorhombic cell.
 ALAT       =    10.1600000000
 B/A-ratio  =     1.1574803150
 C/A-ratio  =     1.4763779528
  
  Lattice vectors:
  
 A1 = (  10.1600000000,   0.0000000000,   0.0000000000)
 A2 = (   0.0000000000,  11.7600000000,   0.0000000000)
 A3 = (   0.0000000000,   0.0000000000,  15.0000000000)


Analysis of symmetry for initial positions (statically):
=====================================================================
 Subroutine PRICEL returns:
 Original cell was already a primitive cell.
 

 Routine SETGRP: Setting up the symmetry group for a 
 simple orthorhombic supercell.


 Subroutine GETGRP returns: Found  2 space group operations
 (whereof  2 operations were pure point group operations)
 out of a pool of  8 trial point group operations.


The static configuration has the point symmetry C_1h.


Analysis of symmetry for dynamics (positions and initial velocities):
=====================================================================
 Subroutine PRICEL returns:
 Original cell was already a primitive cell.
 

 Routine SETGRP: Setting up the symmetry group for a 
 simple orthorhombic supercell.


 Subroutine GETGRP returns: Found  2 space group operations
 (whereof  2 operations were pure point group operations)
 out of a pool of  8 trial point group operations.


The dynamic configuration has the point symmetry C_1h.


Analysis of magnetic symmetry:
=====================================================================

 Subroutine MAGSYM returns: Found  2 space group operations
 (whereof  2 operations were pure point group operations)
 out of a pool of  2 trial space group operations
 (whereof  2 operations were pure point group operations)
 and found also     1 'primitive' translations


The magnetic configuration has the point symmetry C_1h.


 irot  :   1
 --------------------------------------------------------------------
 isymop:   1   0   0
           0   1   0
           0   0   1

 gtrans:     0.0000000     0.0000000     0.0000000

 ptrans:     0.0000000     0.0000000     0.0000000
 rotmap:
 (   1->   1)  (   2->   2)  (   3->   3) 


 irot  :   2
 --------------------------------------------------------------------
 isymop:   1   0   0
           0   1   0
           0   0  -1

 gtrans:     0.0000000     0.0000000     0.0000000

 ptrans:     0.0000000     0.0000000     0.0000000
 rotmap:
 (   1->   1)  (   2->   2)  (   3->   3) 
 
 
 KPOINTS: K-Points                                

Automatic generation of k-mesh.
Space group operators:
 irot       det(A)        alpha          n_x          n_y          n_z        tau_x        tau_y        tau_z
    1     1.000000     0.000000     1.000000     0.000000     0.000000     0.000000     0.000000     0.000000
    2    -1.000000   180.000000     0.000000     0.000000     1.000000     0.000000     0.000000     0.000000
 
 Subroutine IBZKPT returns following result:
 ===========================================
 
 Found      5 irreducible k-points:
 
 Following reciprocal coordinates:
            Coordinates               Weight
  0.000000  0.000000  0.250000      2.000000
  0.333333  0.000000  0.250000      4.000000
  0.000000  0.333333  0.250000      4.000000
  0.333333  0.333333  0.250000      4.000000
 -0.333333  0.333333  0.250000      4.000000
 
 Following cartesian coordinates:
            Coordinates               Weight
  0.000000  0.000000  0.016667      2.000000
  0.032808  0.000000  0.016667      4.000000
  0.000000  0.028345  0.016667      4.000000
  0.032808  0.028345  0.016667      4.000000
 -0.032808  0.028345  0.016667      4.000000
 


--------------------------------------------------------------------------------------------------------




 Dimension of arrays:
   k-points           NKPTS =      5   k-points in BZ     NKDIM =      5   number of bands    NBANDS=     14
   number of dos      NEDOS =    301   number of ions     NIONS =      3
   non local maximal  LDIM  =      4   non local SUM 2l+1 LMDIM =      8
   total plane-waves  NPLWV = 301056
   max r-space proj   IRMAX =    762   max aug-charges    IRDMAX=   2379
   dimension x,y,z NGX =    56 NGY =   64 NGZ =   84
   dimension x,y,z NGXF=   112 NGYF=  128 NGZF=  168
   support grid    NGXF=   112 NGYF=  128 NGZF=  168
   ions per type =               1   2
 NGX,Y,Z   is equivalent  to a cutoff of   9.16,  9.05,  9.31 a.u.
 NGXF,Y,Z  is equivalent  to a cutoff of  18.33, 18.09, 18.62 a.u.


 I would recommend the setting:
   dimension x,y,z NGX =    56 NGY =   64 NGZ =   82
 SYSTEM =  Beta12Borophene !The name of the system 
 POSCAR =  MoleculeAdsorption                      

 Startparameter for this run:
   NWRITE =      2    write-flag & timer
   PREC   = normal    normal or accurate (medium, high low for compatibility)
   ISTART =      0    job   : 0-new  1-cont  2-samecut
   ICHARG =      2    charge: 1-file 2-atom 10-const
   ISPIN  =      2    spin polarized calculation?
   LNONCOLLINEAR =      F non collinear calculations
   LSORBIT =      F    spin-orbit coupling
   INIWAV =      1    electr: 0-lowe 1-rand  2-diag
   LASPH  =      F    aspherical Exc in radial PAW
   METAGGA=      F    non-selfconsistent MetaGGA calc.

 Electronic Relaxation 1
   ENCUT  =  500.0 eV  36.75 Ry    6.06 a.u.  18.52 21.44 27.35*2*pi/ulx,y,z
   ENINI  =  500.0     initial cutoff
   ENAUG  =  644.9 eV  augmentation charge cutoff
   NELM   =     60;   NELMIN=  2; NELMDL= -5     # of ELM steps 
   EDIFF  = 0.1E-05   stopping-criterion for ELM
   LREAL  =      T    real-space projection
   NLSPLINE    = F    spline interpolate recip. space projectors
   LCOMPAT=      F    compatible to vasp.4.4
   GGA_COMPAT  = T    GGA compatible to vasp.4.4-vasp.4.6
   LMAXPAW     = -100 max onsite density
   LMAXMIX     =    2 max onsite mixed and CHGCAR
   VOSKOWN=      0    Vosko Wilk Nusair interpolation
   ROPT   =   -0.00050  -0.00050
 Ionic relaxation
   EDIFFG = -.1E-01   stopping-criterion for IOM
   NSW    =   1000    number of steps for IOM
   NBLOCK =      1;   KBLOCK =   1000    inner block; outer block 
   IBRION =      2    ionic relax: 0-MD 1-quasi-New 2-CG
   NFREE  =      1    steps in history (QN), initial steepest desc. (CG)
   ISIF   =      2    stress and relaxation
   IWAVPR =     11    prediction:  0-non 1-charg 2-wave 3-comb
   ISYM   =      2    0-nonsym 1-usesym 2-fastsym
   LCORR  =      T    Harris-Foulkes like correction to forces

   POTIM  = 0.5000    time-step for ionic-motion
   TEIN   =    0.0    initial temperature
   TEBEG  =    0.0;   TEEND  =   0.0 temperature during run
   SMASS  =  -3.00    Nose mass-parameter (am)
   estimated Nose-frequenzy (Omega)   =  0.10E-29 period in steps =****** mass=  -0.236E-26a.u.
   SCALEE = 1.0000    scale energy and forces
   NPACO  =    256;   APACO  = 16.0  distance and # of slots for P.C.
   PSTRESS=    0.0 pullay stress

  Mass of Ions in am
   POMASS =  12.01 16.00
  Ionic Valenz
   ZVAL   =   4.00  6.00
  Atomic Wigner-Seitz radii
   RWIGS  =  -1.00 -1.00
  virtual crystal weights 
   VCA    =   1.00  1.00
   NELECT =      16.0000    total number of electrons
   NUPDOWN=      -1.0000    fix difference up-down

 DOS related values:
   EMIN   =  10.00;   EMAX   =-10.00  energy-range for DOS
   EFERMI =   0.00
   ISMEAR =     1;   SIGMA  =   0.10  broadening in eV -4-tet -1-fermi 0-gaus

 Electronic relaxation 2 (details)
   IALGO  =     38    algorithm
   LDIAG  =      T    sub-space diagonalisation (order eigenvalues)
   LSUBROT=      T    optimize rotation matrix (better conditioning)
   TURBO    =      0    0=normal 1=particle mesh
   IRESTART =      0    0=no restart 2=restart with 2 vectors
   NREBOOT  =      0    no. of reboots
   NMIN     =      0    reboot dimension
   EREF     =   0.00    reference energy to select bands
   IMIX   =      4    mixing-type and parameters
     AMIX     =   0.40;   BMIX     =  1.00
     AMIX_MAG =   1.60;   BMIX_MAG =  1.00
     AMIN     =   0.10
     WC   =   100.;   INIMIX=   1;  MIXPRE=   1;  MAXMIX= -45

 Intra band minimization:
   WEIMIN = 0.0010     energy-eigenvalue tresh-hold
   EBREAK =  0.18E-07  absolut break condition
   DEPER  =   0.30     relativ break condition  

   TIME   =   0.40     timestep for ELM

  volume/ion in A,a.u.               =     597.41      4031.51
  Fermi-wavevector in a.u.,A,eV,Ry     =   0.339613  0.641775  1.569253  0.115337
  Thomas-Fermi vector in A             =   1.242642
 
 Write flags
   LWAVE  =      F    write WAVECAR
   LCHARG =      F    write CHGCAR
   LVTOT  =      F    write LOCPOT, total local potential
   LVHAR  =      F    write LOCPOT, Hartree potential only
   LELF   =      F    write electronic localiz. function (ELF)
   LORBIT =      0    0 simple, 1 ext, 2 COOP (PROOUT)


 Dipole corrections
   LMONO  =      F    monopole corrections only (constant potential shift)
   LDIPOL =      T    correct potential (dipole corrections)
   IDIPOL =      3    1-x, 2-y, 3-z, 4-all directions 
   EPSILON=  1.0000000 bulk dielectric constant

 Exchange correlation treatment:
   GGA     =    PE    GGA type
   LEXCH   =     8    internal setting for exchange type
   VOSKOWN=      0    Vosko Wilk Nusair interpolation
   LHFCALC =     F    Hartree Fock is set to
   LHFONE  =     F    Hartree Fock one center treatment
   AEXX    =    0.0000 exact exchange contribution

 Linear response parameters
   LEPSILON=     F    determine dielectric tensor
   LRPA    =     F    only Hartree local field effects (RPA)
   LNABLA  =     F    use nabla operator in PAW spheres
   LVEL    =     F    velocity operator in full k-point grid
   LINTERFAST=   F  fast interpolation
   KINTER  =     0    interpolate to denser k-point grid
   CSHIFT  =0.1000    complex shift for real part using Kramers Kronig
   OMEGAMAX=  -1.0    maximum frequency
   DEG_THRESHOLD= 0.2000000E-02 threshold for treating states as degnerate
   RTIME   =    0.100 relaxation time in fs

 Orbital magnetization related:
   ORBITALMAG=     F  switch on orbital magnetization
   LCHIMAG   =     F  perturbation theory with respect to B field
   DQ        =  0.001000  dq finite difference perturbation B field



--------------------------------------------------------------------------------------------------------


 conjugate gradient relaxation of ions
 charge density and potential will be updated during run
 spin polarized calculation
 Variant of blocked Davidson
 Davidson routine will perform the subspace rotation
 perform sub-space diagonalisation
    after iterative eigenvector-optimisation
 modified Broyden-mixing scheme, WC =      100.0
 initial mixing is a Kerker type mixing with AMIX =  0.4000 and BMIX =      1.0000
 Hartree-type preconditioning will be used
 using additional bands            6
 real space projection scheme for non local part
 use partial core corrections
 calculate Harris-corrections to forces 
   (improved forces if not selfconsistent)
 use gradient corrections 
 use of overlap-Matrix (Vanderbilt PP)
 Methfessel and Paxton  Order N= 1 SIGMA  =   0.10


--------------------------------------------------------------------------------------------------------


  energy-cutoff  :      500.00
  volume of cell :     1792.22
      direct lattice vectors                 reciprocal lattice vectors
    10.160000000  0.000000000  0.000000000     0.098425197  0.000000000  0.000000000
     0.000000000 11.760000000  0.000000000     0.000000000  0.085034014  0.000000000
     0.000000000  0.000000000 15.000000000     0.000000000  0.000000000  0.066666667

  length of vectors
    10.160000000 11.760000000 15.000000000     0.098425197  0.085034014  0.066666667


 
 k-points in units of 2pi/SCALE and weight: K-Points                                
   0.00000000  0.00000000  0.01666667       0.111
   0.03280840  0.00000000  0.01666667       0.222
   0.00000000  0.02834467  0.01666667       0.222
   0.03280840  0.02834467  0.01666667       0.222
  -0.03280840  0.02834467  0.01666667       0.222
 
 k-points in reciprocal lattice and weights: K-Points                                
   0.00000000  0.00000000  0.25000000       0.111
   0.33333333  0.00000000  0.25000000       0.222
   0.00000000  0.33333333  0.25000000       0.222
   0.33333333  0.33333333  0.25000000       0.222
  -0.33333333  0.33333333  0.25000000       0.222
 
 position of ions in fractional coordinates (direct lattice) 
   0.00000000  0.00000000  0.00000000
   0.88228000  0.00259000  0.00000000
   0.11771000  0.99739000  0.00000000
 
 position of ions in cartesian coordinates  (Angst):
   0.00000000  0.00000000  0.00000000
   8.96396480  0.03045840  0.00000000
   1.19593360 11.72930640  0.00000000
 


--------------------------------------------------------------------------------------------------------


 k-point  1 :   0.0000 0.0000 0.2500  plane waves:   45501
 k-point  2 :   0.3333 0.0000 0.2500  plane waves:   45508
 k-point  3 :   0.0000 0.3333 0.2500  plane waves:   45494
 k-point  4 :   0.3333 0.3333 0.2500  plane waves:   45490
 k-point  5 :  -0.3333 0.3333 0.2500  plane waves:   45490

 maximum and minimum number of plane-waves per node :     11396    11341

 maximum number of plane-waves:     45508
 maximum index in each direction: 
   IXMAX=   18   IYMAX=   21   IZMAX=   27
   IXMIN=  -18   IYMIN=  -21   IZMIN=  -27

 WARNING: aliasing errors must be expected set NGX to  74 to avoid them
 WARNING: aliasing errors must be expected set NGY to  86 to avoid them
 WARNING: aliasing errors must be expected set NGZ to 110 to avoid them
 aliasing errors are usually negligible using standard VASP settings
 and one can safely disregard these warnings

 real space projection operators:
  total allocation   :        130.81 KBytes
  max/ min on nodes  :         33.12         31.94


 parallel 3D FFT for wavefunctions:
    minimum data exchange during FFTs selected (reduces bandwidth)
 parallel 3D FFT for charge:
    minimum data exchange during FFTs selected (reduces bandwidth)


 total amount of memory used by VASP on root node   133001. kBytes
========================================================================

   base      :      30000. kBytes
   nonlr-proj:         76. kBytes
   fftplans  :      22742. kBytes
   grid      :      54677. kBytes
   one-center:          6. kBytes
   wavefun   :      25500. kBytes
 
 Broyden mixing: mesh for mixing (old mesh)
   NGX = 37   NGY = 43   NGZ = 55
  (NGX  =112   NGY  =128   NGZ  =168)
  gives a total of  87505 points

 initial charge density was supplied:
 charge density of overlapping atoms calculated
 number of electron      16.0000000 magnetization       3.0000000
 keeping initial charge density in first step


--------------------------------------------------------------------------------------------------------


 Maximum index for non-local projection operator          187
 Maximum index for augmentation-charges          537 (set IRDMAX)


--------------------------------------------------------------------------------------------------------


 First call to EWALD:  gamma=   0.146
 Maximum number of real-space cells 3x 3x 2
 Maximum number of reciprocal cells 2x 3x 3

 FEWALD executed in parallel
    FEWALD:  cpu time    0.00: real time    0.00


----------------------------------------- Iteration    1(   1)  ---------------------------------------


    POTLOK:  cpu time    1.20: real time    1.20
    SETDIJ:  cpu time    0.01: real time    0.01
     EDDAV:  cpu time    3.77: real time    3.78
       DOS:  cpu time    0.00: real time    0.00
    --------------------------------------------
      LOOP:  cpu time    4.99: real time    5.01

 eigenvalue-minimisations  :   408
 total energy-change (2. order) : 0.1074450E+03  (-0.3668803E+03)
 number of electron      16.0000000 magnetization       3.0000000
 augmentation part       16.0000000 magnetization       3.0000000

 DIPCOR: dipole corrections for dipol
 direction  3 min pos    92,
 dipolmoment           0.000000      0.000000      0.000020 electrons x Angstroem
 Tr[quadrupol]       -15.853597

 energy correction for charged system         0.000000 eV
 dipol+quadrupol energy correction           -0.000000 eV
 added-field ion interaction          0.000020 eV  (added to PSCEN)


 Free energy of the ion-electron system (eV)
  ---------------------------------------------------
  alpha Z        PSCENC =         0.59686372
  Ewald energy   TEWEN  =       390.88630271
  -1/2 Hartree   DENC   =     -1203.78873367
  -exchange  EXHF       =         0.00000000
  -V(xc)+E(xc)   XCENC  =        67.80162008
  PAW double counting   =       801.20584554     -805.35418297
  entropy T*S    EENTRO =        -0.00175871
  eigenvalues    EBANDS =      -155.76221607
  atomic energy  EATOM  =      1011.86129086
  ---------------------------------------------------
  free energy    TOTEN  =       107.44503147 eV

  energy without entropy =      107.44679018  energy(sigma->0) =      107.44561771


--------------------------------------------------------------------------------------------------------




----------------------------------------- Iteration    1(   2)  ---------------------------------------


     EDDAV:  cpu time    4.69: real time    4.69
       DOS:  cpu time    0.00: real time    0.00
    --------------------------------------------
      LOOP:  cpu time    4.69: real time    4.71

 eigenvalue-minimisations  :   502
 total energy-change (2. order) :-0.9963197E+02  (-0.9600864E+02)
 number of electron      16.0000000 magnetization       3.0000000
 augmentation part       16.0000000 magnetization       3.0000000

 DIPCOR: dipole corrections for dipol
 direction  3 min pos    92,
 dipolmoment           0.000000      0.000000      0.000020 electrons x Angstroem
 Tr[quadrupol]       -15.853597

 energy correction for charged system         0.000000 eV
 dipol+quadrupol energy correction           -0.000000 eV
 added-field ion interaction          0.000020 eV  (added to PSCEN)


 Free energy of the ion-electron system (eV)
  ---------------------------------------------------
  alpha Z        PSCENC =         0.59686372
  Ewald energy   TEWEN  =       390.88630271
  -1/2 Hartree   DENC   =     -1203.78873367
  -exchange  EXHF       =         0.00000000
  -V(xc)+E(xc)   XCENC  =        67.80162008
  PAW double counting   =       801.20584554     -805.35418297
  entropy T*S    EENTRO =        -0.00308330
  eigenvalues    EBANDS =      -255.39286605
  atomic energy  EATOM  =      1011.86129086
  ---------------------------------------------------
  free energy    TOTEN  =         7.81305690 eV

  energy without entropy =        7.81614020  energy(sigma->0) =        7.81408467


--------------------------------------------------------------------------------------------------------




----------------------------------------- Iteration    1(   3)  ---------------------------------------


     EDDAV:  cpu time    4.28: real time    4.29
       DOS:  cpu time    0.00: real time    0.00
    --------------------------------------------
      LOOP:  cpu time    4.28: real time    4.29

 eigenvalue-minimisations  :   452
 total energy-change (2. order) :-0.2913286E+02  (-0.2633498E+02)
 number of electron      16.0000000 magnetization       3.0000000
 augmentation part       16.0000000 magnetization       3.0000000

 DIPCOR: dipole corrections for dipol
 direction  3 min pos    92,
 dipolmoment           0.000000      0.000000      0.000020 electrons x Angstroem
 Tr[quadrupol]       -15.853597

 energy correction for charged system         0.000000 eV
 dipol+quadrupol energy correction           -0.000000 eV
 added-field ion interaction          0.000020 eV  (added to PSCEN)


 Free energy of the ion-electron system (eV)
  ---------------------------------------------------
  alpha Z        PSCENC =         0.59686372
  Ewald energy   TEWEN  =       390.88630271
  -1/2 Hartree   DENC   =     -1203.78873367
  -exchange  EXHF       =         0.00000000
  -V(xc)+E(xc)   XCENC  =        67.80162008
  PAW double counting   =       801.20584554     -805.35418297
  entropy T*S    EENTRO =         0.00032211
  eigenvalues    EBANDS =      -284.52912898
  atomic energy  EATOM  =      1011.86129086
  ---------------------------------------------------
  free energy    TOTEN  =       -21.31980062 eV

  energy without entropy =      -21.32012273  energy(sigma->0) =      -21.31990799


--------------------------------------------------------------------------------------------------------




----------------------------------------- Iteration    1(   4)  ---------------------------------------


     EDDAV:  cpu time    3.10: real time    3.10
       DOS:  cpu time    0.00: real time    0.00
    --------------------------------------------
      LOOP:  cpu time    3.10: real time    3.11

 eigenvalue-minimisations  :   334
 total energy-change (2. order) :-0.2023972E+01  (-0.2022589E+01)
 number of electron      16.0000000 magnetization       3.0000000
 augmentation part       16.0000000 magnetization       3.0000000

 DIPCOR: dipole corrections for dipol
 direction  3 min pos    92,
 dipolmoment           0.000000      0.000000      0.000020 electrons x Angstroem
 Tr[quadrupol]       -15.853597

 energy correction for charged system         0.000000 eV
 dipol+quadrupol energy correction           -0.000000 eV
 added-field ion interaction          0.000020 eV  (added to PSCEN)


 Free energy of the ion-electron system (eV)
  ---------------------------------------------------
  alpha Z        PSCENC =         0.59686372
  Ewald energy   TEWEN  =       390.88630271
  -1/2 Hartree   DENC   =     -1203.78873367
  -exchange  EXHF       =         0.00000000
  -V(xc)+E(xc)   XCENC  =        67.80162008
  PAW double counting   =       801.20584554     -805.35418297
  entropy T*S    EENTRO =         0.00584676
  eigenvalues    EBANDS =      -286.55862557
  atomic energy  EATOM  =      1011.86129086
  ---------------------------------------------------
  free energy    TOTEN  =       -23.34377256 eV

  energy without entropy =      -23.34961932  energy(sigma->0) =      -23.34572148


--------------------------------------------------------------------------------------------------------




----------------------------------------- Iteration    1(   5)  ---------------------------------------


     EDDAV:  cpu time    3.20: real time    3.20
       DOS:  cpu time    0.00: real time    0.00
    CHARGE:  cpu time    0.26: real time    0.26
    MIXING:  cpu time    0.02: real time    0.02
    --------------------------------------------
      LOOP:  cpu time    3.48: real time    3.48

 eigenvalue-minimisations  :   348
 total energy-change (2. order) :-0.2589896E-01  (-0.2572292E-01)
 number of electron      16.0000027 magnetization       2.2835090
 augmentation part        1.4971406 magnetization       2.3033995

 DIPCOR: dipole corrections for dipol
 direction  3 min pos    92,
 dipolmoment           0.000000      0.000000      0.000020 electrons x Angstroem
 Tr[quadrupol]       -15.853597

 energy correction for charged system         0.000000 eV
 dipol+quadrupol energy correction           -0.000000 eV
 added-field ion interaction          0.000020 eV  (added to PSCEN)


 Broyden mixing:
  rms(total) = 0.13712E+01    rms(broyden)= 0.13706E+01
  rms(prec ) = 0.14425E+01
  weight for this iteration     100.00

 Free energy of the ion-electron system (eV)
  ---------------------------------------------------
  alpha Z        PSCENC =         0.59686372
  Ewald energy   TEWEN  =       390.88630271
  -1/2 Hartree   DENC   =     -1203.78873367
  -exchange  EXHF       =         0.00000000
  -V(xc)+E(xc)   XCENC  =        67.80162008
  PAW double counting   =       801.20584554     -805.35418297
  entropy T*S    EENTRO =         0.00579795
  eigenvalues    EBANDS =      -286.58447572
  atomic energy  EATOM  =      1011.86129086
  ---------------------------------------------------
  free energy    TOTEN  =       -23.36967152 eV

  energy without entropy =      -23.37546947  energy(sigma->0) =      -23.37160417


--------------------------------------------------------------------------------------------------------




----------------------------------------- Iteration    1(   6)  ---------------------------------------


    POTLOK:  cpu time    1.19: real time    1.20
    SETDIJ:  cpu time    0.01: real time    0.01
     EDDAV:  cpu time    2.82: real time    2.82
       DOS:  cpu time    0.00: real time    0.00
    CHARGE:  cpu time    0.26: real time    0.26
    MIXING:  cpu time    0.02: real time    0.02
    --------------------------------------------
      LOOP:  cpu time    4.31: real time    4.31

 eigenvalue-minimisations  :   292
 total energy-change (2. order) : 0.9147263E+01  (-0.1219483E+01)
 number of electron      16.0000021 magnetization       1.7652891
 augmentation part        1.3312596 magnetization       1.7129168

 DIPCOR: dipole corrections for dipol
 direction  3 min pos    92,
 dipolmoment           0.000000      0.000000     -0.002037 electrons x Angstroem
 Tr[quadrupol]       -15.906091

 energy correction for charged system         0.000000 eV
 dipol+quadrupol energy correction           -0.000000 eV
 added-field ion interaction         -0.002086 eV  (added to PSCEN)


 Broyden mixing:
  rms(total) = 0.48196E+00    rms(broyden)= 0.48173E+00
  rms(prec ) = 0.50787E+00
  weight for this iteration     100.00

 eigenvalues of (default mixing * dielectric matrix)
  average eigenvalue GAMMA=   0.9002
  0.9002

 Free energy of the ion-electron system (eV)
  ---------------------------------------------------
  alpha Z        PSCENC =         0.59475707
  Ewald energy   TEWEN  =       390.88630271
  -1/2 Hartree   DENC   =     -1228.59682134
  -exchange  EXHF       =         0.00000000
  -V(xc)+E(xc)   XCENC  =        76.01683669
  PAW double counting   =      1043.92021292    -1048.47897887
  entropy T*S    EENTRO =         0.00580146
  eigenvalues    EBANDS =      -260.43181012
  atomic energy  EATOM  =      1011.86129086
  ---------------------------------------------------
  free energy    TOTEN  =       -14.22240862 eV

  energy without entropy =      -14.22821009  energy(sigma->0) =      -14.22434244


--------------------------------------------------------------------------------------------------------




----------------------------------------- Iteration    1(   7)  ---------------------------------------


    POTLOK:  cpu time    1.19: real time    1.19
    SETDIJ:  cpu time    0.01: real time    0.01
     EDDAV:  cpu time    2.94: real time    2.95
       DOS:  cpu time    0.00: real time    0.00
    CHARGE:  cpu time    0.27: real time    0.27
    MIXING:  cpu time    0.02: real time    0.02
    --------------------------------------------
      LOOP:  cpu time    4.44: real time    4.45

 eigenvalue-minimisations  :   322
 total energy-change (2. order) :-0.5438557E+01  (-0.3600875E+00)
 number of electron      16.0000021 magnetization       1.1690542
 augmentation part        1.3253941 magnetization       1.0492495

 DIPCOR: dipole corrections for dipol
 direction  3 min pos    91,
 dipolmoment           0.000000      0.000000     -0.002485 electrons x Angstroem
 Tr[quadrupol]       -15.947610

 energy correction for charged system         0.000000 eV
 dipol+quadrupol energy correction           -0.000000 eV
 added-field ion interaction         -0.002182 eV  (added to PSCEN)


 Broyden mixing:
  rms(total) = 0.28202E+00    rms(broyden)= 0.28200E+00
  rms(prec ) = 0.29327E+00
  weight for this iteration     100.00

 eigenvalues of (default mixing * dielectric matrix)
  average eigenvalue GAMMA=   1.0474
  1.0474  1.0474

 Free energy of the ion-electron system (eV)
  ---------------------------------------------------
  alpha Z        PSCENC =         0.59466169
  Ewald energy   TEWEN  =       390.88630271
  -1/2 Hartree   DENC   =     -1236.42193038
  -exchange  EXHF       =         0.00000000
  -V(xc)+E(xc)   XCENC  =        72.01674034
  PAW double counting   =      1202.86960440    -1207.38014471
  entropy T*S    EENTRO =         0.01237888
  eigenvalues    EBANDS =      -254.09986912
  atomic energy  EATOM  =      1011.86129086
  ---------------------------------------------------
  free energy    TOTEN  =       -19.66096534 eV

  energy without entropy =      -19.67334422  energy(sigma->0) =      -19.66509164


--------------------------------------------------------------------------------------------------------




----------------------------------------- Iteration    1(   8)  ---------------------------------------


    POTLOK:  cpu time    1.11: real time    1.11
    SETDIJ:  cpu time    0.01: real time    0.01
     EDDAV:  cpu time    2.86: real time    2.86
       DOS:  cpu time    0.00: real time    0.00
    CHARGE:  cpu time    0.25: real time    0.25
    MIXING:  cpu time    0.02: real time    0.02
    --------------------------------------------
      LOOP:  cpu time    4.26: real time    4.27

 eigenvalue-minimisations  :   298
 total energy-change (2. order) :-0.2324671E+01  (-0.1106488E+00)
 number of electron      16.0000021 magnetization       0.7994377
 augmentation part        1.3236785 magnetization       0.7971084

 DIPCOR: dipole corrections for dipol
 direction  3 min pos    91,
 dipolmoment           0.000000      0.000000     -0.002546 electrons x Angstroem
 Tr[quadrupol]       -15.997740

 energy correction for charged system         0.000000 eV
 dipol+quadrupol energy correction           -0.000000 eV
 added-field ion interaction         -0.002236 eV  (added to PSCEN)


 Broyden mixing:
  rms(total) = 0.15552E+00    rms(broyden)= 0.15551E+00
  rms(prec ) = 0.15962E+00
  weight for this iteration     100.00

 eigenvalues of (default mixing * dielectric matrix)
  average eigenvalue GAMMA=   1.1786
  1.9868  0.8695  0.6795

 Free energy of the ion-electron system (eV)
  ---------------------------------------------------
  alpha Z        PSCENC =         0.59460758
  Ewald energy   TEWEN  =       390.88630271
  -1/2 Hartree   DENC   =     -1240.16863152
  -exchange  EXHF       =         0.00000000
  -V(xc)+E(xc)   XCENC  =        70.17505826
  PAW double counting   =      1363.81275432    -1368.29286815
  entropy T*S    EENTRO =         0.00580852
  eigenvalues    EBANDS =      -250.85995930
  atomic energy  EATOM  =      1011.86129086
  ---------------------------------------------------
  free energy    TOTEN  =       -21.98563673 eV

  energy without entropy =      -21.99144525  energy(sigma->0) =      -21.98757291


--------------------------------------------------------------------------------------------------------




----------------------------------------- Iteration    1(   9)  ---------------------------------------


    POTLOK:  cpu time    1.14: real time    1.14
    SETDIJ:  cpu time    0.01: real time    0.01
     EDDAV:  cpu time    3.29: real time    3.30
       DOS:  cpu time    0.00: real time    0.00
    CHARGE:  cpu time    0.26: real time    0.26
    MIXING:  cpu time    0.03: real time    0.03
    --------------------------------------------
      LOOP:  cpu time    4.73: real time    4.74

 eigenvalue-minimisations  :   358
 total energy-change (2. order) :-0.2696305E+00  (-0.5090653E-02)
 number of electron      16.0000021 magnetization       0.5723320
 augmentation part        1.3189873 magnetization       0.4575740

 DIPCOR: dipole corrections for dipol
 direction  3 min pos    89,
 dipolmoment           0.000000      0.000000     -0.001503 electrons x Angstroem
 Tr[quadrupol]       -16.029681

 energy correction for charged system         0.000000 eV
 dipol+quadrupol energy correction           -0.000000 eV
 added-field ion interaction         -0.000880 eV  (added to PSCEN)


 Broyden mixing:
  rms(total) = 0.72798E-01    rms(broyden)= 0.72733E-01
  rms(prec ) = 0.76321E-01
  weight for this iteration     100.00

 eigenvalues of (default mixing * dielectric matrix)
  average eigenvalue GAMMA=   1.1904
  2.2679  1.0582  0.8462  0.5895

 Free energy of the ion-electron system (eV)
  ---------------------------------------------------
  alpha Z        PSCENC =         0.59596351
  Ewald energy   TEWEN  =       390.88630271
  -1/2 Hartree   DENC   =     -1241.37851837
  -exchange  EXHF       =         0.00000000
  -V(xc)+E(xc)   XCENC  =        70.01975573
  PAW double counting   =      1441.97472754    -1446.43921750
  entropy T*S    EENTRO =         0.01283875
  eigenvalues    EBANDS =      -249.78841049
  atomic energy  EATOM  =      1011.86129086
  ---------------------------------------------------
  free energy    TOTEN  =       -22.25526726 eV

  energy without entropy =      -22.26810601  energy(sigma->0) =      -22.25954684


--------------------------------------------------------------------------------------------------------




----------------------------------------- Iteration    1(  10)  ---------------------------------------


    POTLOK:  cpu time    1.16: real time    1.16
    SETDIJ:  cpu time    0.01: real time    0.01
     EDDAV:  cpu time    2.79: real time    2.79
       DOS:  cpu time    0.00: real time    0.00
    CHARGE:  cpu time    0.25: real time    0.25
    MIXING:  cpu time    0.03: real time    0.03
    --------------------------------------------
      LOOP:  cpu time    4.23: real time    4.24

 eigenvalue-minimisations  :   286
 total energy-change (2. order) :-0.1577646E+00  (-0.2731926E-02)
 number of electron      16.0000021 magnetization       0.4036053
 augmentation part        1.3139200 magnetization       0.3797874

 DIPCOR: dipole corrections for dipol
 direction  3 min pos    88,
 dipolmoment           0.000000      0.000000     -0.000750 electrons x Angstroem
 Tr[quadrupol]       -16.056985

 energy correction for charged system         0.000000 eV
 dipol+quadrupol energy correction           -0.000000 eV
 added-field ion interaction         -0.000329 eV  (added to PSCEN)


 Broyden mixing:
  rms(total) = 0.50695E-01    rms(broyden)= 0.50675E-01
  rms(prec ) = 0.52060E-01
  weight for this iteration     100.00

 eigenvalues of (default mixing * dielectric matrix)
  average eigenvalue GAMMA=   1.1705
  2.4930  1.0992  1.0992  0.7000  0.4611

 Free energy of the ion-electron system (eV)
  ---------------------------------------------------
  alpha Z        PSCENC =         0.59651427
  Ewald energy   TEWEN  =       390.88630271
  -1/2 Hartree   DENC   =     -1241.10528151
  -exchange  EXHF       =         0.00000000
  -V(xc)+E(xc)   XCENC  =        69.87313734
  PAW double counting   =      1471.04592247    -1475.49242318
  entropy T*S    EENTRO =         0.00809630
  eigenvalues    EBANDS =      -250.08659111
  atomic energy  EATOM  =      1011.86129086
  ---------------------------------------------------
  free energy    TOTEN  =       -22.41303185 eV

  energy without entropy =      -22.42112815  energy(sigma->0) =      -22.41573062


--------------------------------------------------------------------------------------------------------




----------------------------------------- Iteration    1(  11)  ---------------------------------------


    POTLOK:  cpu time    1.15: real time    1.16
    SETDIJ:  cpu time    0.01: real time    0.01
     EDDAV:  cpu time    2.99: real time    3.00
       DOS:  cpu time    0.00: real time    0.00
    CHARGE:  cpu time    0.24: real time    0.24
    MIXING:  cpu time    0.03: real time    0.03
    --------------------------------------------
      LOOP:  cpu time    4.43: real time    4.43

 eigenvalue-minimisations  :   316
 total energy-change (2. order) :-0.7435132E-01  (-0.4338349E-03)
 number of electron      16.0000021 magnetization       0.3239184
 augmentation part        1.3147367 magnetization       0.2347552

 DIPCOR: dipole corrections for dipol
 direction  3 min pos    87,
 dipolmoment           0.000000      0.000000     -0.000254 electrons x Angstroem
 Tr[quadrupol]       -16.080342

 energy correction for charged system         0.000000 eV
 dipol+quadrupol energy correction           -0.000000 eV
 added-field ion interaction         -0.000074 eV  (added to PSCEN)


 Broyden mixing:
  rms(total) = 0.27080E-01    rms(broyden)= 0.27053E-01
  rms(prec ) = 0.28283E-01
  weight for this iteration     100.00

 eigenvalues of (default mixing * dielectric matrix)
  average eigenvalue GAMMA=   1.1415
  2.5058  1.4912  0.8824  0.8824  0.6692  0.4184

 Free energy of the ion-electron system (eV)
  ---------------------------------------------------
  alpha Z        PSCENC =         0.59676905
  Ewald energy   TEWEN  =       390.88630271
  -1/2 Hartree   DENC   =     -1240.72362513
  -exchange  EXHF       =         0.00000000
  -V(xc)+E(xc)   XCENC  =        69.77649739
  PAW double counting   =      1482.01522542    -1486.44400604
  entropy T*S    EENTRO =         0.01190081
  eigenvalues    EBANDS =      -250.46773824
  atomic energy  EATOM  =      1011.86129086
  ---------------------------------------------------
  free energy    TOTEN  =       -22.48738317 eV

  energy without entropy =      -22.49928398  energy(sigma->0) =      -22.49135011


--------------------------------------------------------------------------------------------------------




----------------------------------------- Iteration    1(  12)  ---------------------------------------


    POTLOK:  cpu time    1.14: real time    1.14
    SETDIJ:  cpu time    0.01: real time    0.01
     EDDAV:  cpu time    3.05: real time    3.05
       DOS:  cpu time    0.00: real time    0.00
    CHARGE:  cpu time    0.25: real time    0.25
    MIXING:  cpu time    0.03: real time    0.03
    --------------------------------------------
      LOOP:  cpu time    4.49: real time    4.49

 eigenvalue-minimisations  :   328
 total energy-change (2. order) :-0.1366782E+00  (-0.5937656E-03)
 number of electron      16.0000021 magnetization       0.2385282
 augmentation part        1.3161744 magnetization       0.1892253

 DIPCOR: dipole corrections for dipol
 direction  3 min pos    86,
 dipolmoment           0.000000      0.000000     -0.000022 electrons x Angstroem
 Tr[quadrupol]       -16.099233

 energy correction for charged system         0.000000 eV
 dipol+quadrupol energy correction           -0.000000 eV
 added-field ion interaction         -0.000003 eV  (added to PSCEN)


 Broyden mixing:
  rms(total) = 0.19041E-01    rms(broyden)= 0.19021E-01
  rms(prec ) = 0.20019E-01
  weight for this iteration     100.00

 eigenvalues of (default mixing * dielectric matrix)
  average eigenvalue GAMMA=   1.1445
  2.4456  1.7645  1.0236  1.0236  0.7350  0.6224  0.3966

 Free energy of the ion-electron system (eV)
  ---------------------------------------------------
  alpha Z        PSCENC =         0.59684030
  Ewald energy   TEWEN  =       390.88630271
  -1/2 Hartree   DENC   =     -1240.40109122
  -exchange  EXHF       =         0.00000000
  -V(xc)+E(xc)   XCENC  =        69.62611473
  PAW double counting   =      1478.48983406    -1482.91183390
  entropy T*S    EENTRO =         0.00980117
  eigenvalues    EBANDS =      -250.78132006
  atomic energy  EATOM  =      1011.86129086
  ---------------------------------------------------
  free energy    TOTEN  =       -22.62406136 eV

  energy without entropy =      -22.63386252  energy(sigma->0) =      -22.62732841


--------------------------------------------------------------------------------------------------------




----------------------------------------- Iteration    1(  13)  ---------------------------------------


    POTLOK:  cpu time    1.17: real time    1.17
    SETDIJ:  cpu time    0.01: real time    0.01
     EDDAV:  cpu time    2.97: real time    2.97
       DOS:  cpu time    0.00: real time    0.00
    CHARGE:  cpu time    0.24: real time    0.24
    MIXING:  cpu time    0.03: real time    0.03
    --------------------------------------------
      LOOP:  cpu time    4.43: real time    4.44

 eigenvalue-minimisations  :   316
 total energy-change (2. order) :-0.1036568E+00  (-0.1634330E-03)
 number of electron      16.0000021 magnetization       0.2144606
 augmentation part        1.3161586 magnetization       0.1442381

 DIPCOR: dipole corrections for dipol
 direction  3 min pos    86,
 dipolmoment           0.000000      0.000000      0.000103 electrons x Angstroem
 Tr[quadrupol]       -16.122183

 energy correction for charged system         0.000000 eV
 dipol+quadrupol energy correction           -0.000000 eV
 added-field ion interaction          0.000015 eV  (added to PSCEN)


 Broyden mixing:
  rms(total) = 0.11679E-01    rms(broyden)= 0.11616E-01
  rms(prec ) = 0.12915E-01
  weight for this iteration     100.00

 eigenvalues of (default mixing * dielectric matrix)
  average eigenvalue GAMMA=   1.0499
  2.4614  1.7555  1.0229  1.0229  0.7191  0.6080  0.4252  0.3841

 Free energy of the ion-electron system (eV)
  ---------------------------------------------------
  alpha Z        PSCENC =         0.59685857
  Ewald energy   TEWEN  =       390.88630271
  -1/2 Hartree   DENC   =     -1240.37617081
  -exchange  EXHF       =         0.00000000
  -V(xc)+E(xc)   XCENC  =        69.52109632
  PAW double counting   =      1476.86071682    -1481.28090078
  entropy T*S    EENTRO =         0.01105339
  eigenvalues    EBANDS =      -250.80796528
  atomic energy  EATOM  =      1011.86129086
  ---------------------------------------------------
  free energy    TOTEN  =       -22.72771820 eV

  energy without entropy =      -22.73877159  energy(sigma->0) =      -22.73140266


--------------------------------------------------------------------------------------------------------




----------------------------------------- Iteration    1(  14)  ---------------------------------------


    POTLOK:  cpu time    1.14: real time    1.15
    SETDIJ:  cpu time    0.01: real time    0.01
     EDDAV:  cpu time    3.01: real time    3.01
       DOS:  cpu time    0.00: real time    0.00
    CHARGE:  cpu time    0.23: real time    0.23
    MIXING:  cpu time    0.03: real time    0.03
    --------------------------------------------
      LOOP:  cpu time    4.42: real time    4.44

 eigenvalue-minimisations  :   328
 total energy-change (2. order) :-0.4095391E-01  (-0.3784381E-04)
 number of electron      16.0000021 magnetization       0.2033074
 augmentation part        1.3159238 magnetization       0.1347801

 DIPCOR: dipole corrections for dipol
 direction  3 min pos    87,
 dipolmoment           0.000000      0.000000      0.000309 electrons x Angstroem
 Tr[quadrupol]       -16.131034

 energy correction for charged system         0.000000 eV
 dipol+quadrupol energy correction           -0.000000 eV
 added-field ion interaction          0.000091 eV  (added to PSCEN)


 Broyden mixing:
  rms(total) = 0.11177E-01    rms(broyden)= 0.11159E-01
  rms(prec ) = 0.12423E-01
  weight for this iteration     100.00

 eigenvalues of (default mixing * dielectric matrix)
  average eigenvalue GAMMA=   1.1123
  2.4672  1.7843  1.0058  1.0058  1.0028  1.0028  0.7248  0.6212  0.3958

 Free energy of the ion-electron system (eV)
  ---------------------------------------------------
  alpha Z        PSCENC =         0.59693404
  Ewald energy   TEWEN  =       390.88630271
  -1/2 Hartree   DENC   =     -1240.37399123
  -exchange  EXHF       =         0.00000000
  -V(xc)+E(xc)   XCENC  =        69.48056916
  PAW double counting   =      1476.81968381    -1481.23958815
  entropy T*S    EENTRO =         0.01099684
  eigenvalues    EBANDS =      -250.81087014
  atomic energy  EATOM  =      1011.86129086
  ---------------------------------------------------
  free energy    TOTEN  =       -22.76867211 eV

  energy without entropy =      -22.77966895  energy(sigma->0) =      -22.77233772


--------------------------------------------------------------------------------------------------------




----------------------------------------- Iteration    1(  15)  ---------------------------------------


    POTLOK:  cpu time    1.10: real time    1.10
    SETDIJ:  cpu time    0.01: real time    0.01
     EDDAV:  cpu time    2.80: real time    2.80
       DOS:  cpu time    0.00: real time    0.00
    CHARGE:  cpu time    0.24: real time    0.24
    MIXING:  cpu time    0.04: real time    0.04
    --------------------------------------------
      LOOP:  cpu time    4.19: real time    4.19

 eigenvalue-minimisations  :   304
 total energy-change (2. order) :-0.2195221E-01  (-0.1406496E-04)
 number of electron      16.0000021 magnetization       0.1224609
 augmentation part        1.3159490 magnetization       0.0581618

 DIPCOR: dipole corrections for dipol
 direction  3 min pos    88,
 dipolmoment           0.000000      0.000000      0.000550 electrons x Angstroem
 Tr[quadrupol]       -16.139925

 energy correction for charged system         0.000000 eV
 dipol+quadrupol energy correction           -0.000000 eV
 added-field ion interaction          0.000241 eV  (added to PSCEN)


 Broyden mixing:
  rms(total) = 0.68727E-02    rms(broyden)= 0.68150E-02
  rms(prec ) = 0.80317E-02
  weight for this iteration     100.00

 eigenvalues of (default mixing * dielectric matrix)
  average eigenvalue GAMMA=   1.1442
  2.4108  2.4108  1.3347  0.8632  0.8632  0.9104  0.9104  0.7219  0.6216  0.3956

 Free energy of the ion-electron system (eV)
  ---------------------------------------------------
  alpha Z        PSCENC =         0.59708498
  Ewald energy   TEWEN  =       390.88630271
  -1/2 Hartree   DENC   =     -1240.34517516
  -exchange  EXHF       =         0.00000000
  -V(xc)+E(xc)   XCENC  =        69.45724926
  PAW double counting   =      1476.62681239    -1481.04612725
  entropy T*S    EENTRO =         0.01069977
  eigenvalues    EBANDS =      -250.83876188
  atomic energy  EATOM  =      1011.86129086
  ---------------------------------------------------
  free energy    TOTEN  =       -22.79062432 eV

  energy without entropy =      -22.80132409  energy(sigma->0) =      -22.79419091


--------------------------------------------------------------------------------------------------------




----------------------------------------- Iteration    1(  16)  ---------------------------------------


    POTLOK:  cpu time    1.15: real time    1.15
    SETDIJ:  cpu time    0.01: real time    0.01
     EDDAV:  cpu time    3.02: real time    3.02
       DOS:  cpu time    0.00: real time    0.00
    CHARGE:  cpu time    0.25: real time    0.25
    MIXING:  cpu time    0.06: real time    0.06
    --------------------------------------------
      LOOP:  cpu time    4.48: real time    4.49

 eigenvalue-minimisations  :   322
 total energy-change (2. order) :-0.9442193E-01  (-0.2200142E-03)
 number of electron      16.0000021 magnetization       0.0893633
 augmentation part        1.3157176 magnetization       0.0128021

 DIPCOR: dipole corrections for dipol
 direction  3 min pos    87,
 dipolmoment           0.000000      0.000000      0.000610 electrons x Angstroem
 Tr[quadrupol]       -16.167860

 energy correction for charged system         0.000000 eV
 dipol+quadrupol energy correction           -0.000000 eV
 added-field ion interaction          0.000178 eV  (added to PSCEN)


 Broyden mixing:
  rms(total) = 0.12657E-01    rms(broyden)= 0.12572E-01
  rms(prec ) = 0.13136E-01
  weight for this iteration     100.00

 eigenvalues of (default mixing * dielectric matrix)
  average eigenvalue GAMMA=   1.2553
  3.6329  2.4047  1.4863  0.9216  0.9216  0.9811  0.9811  0.7816  0.6627  0.6380
  0.3965

 Free energy of the ion-electron system (eV)
  ---------------------------------------------------
  alpha Z        PSCENC =         0.59702198
  Ewald energy   TEWEN  =       390.88630271
  -1/2 Hartree   DENC   =     -1240.35244576
  -exchange  EXHF       =         0.00000000
  -V(xc)+E(xc)   XCENC  =        69.36300557
  PAW double counting   =      1475.89783845    -1480.31627532
  entropy T*S    EENTRO =         0.01139870
  eigenvalues    EBANDS =      -250.83318343
  atomic energy  EATOM  =      1011.86129086
  ---------------------------------------------------
  free energy    TOTEN  =       -22.88504625 eV

  energy without entropy =      -22.89644494  energy(sigma->0) =      -22.88884581


--------------------------------------------------------------------------------------------------------




----------------------------------------- Iteration    1(  17)  ---------------------------------------


    POTLOK:  cpu time    1.15: real time    1.15
    SETDIJ:  cpu time    0.01: real time    0.01
     EDDAV:  cpu time    3.54: real time    3.54
       DOS:  cpu time    0.00: real time    0.00
    CHARGE:  cpu time    0.24: real time    0.24
    MIXING:  cpu time    0.05: real time    0.05
    --------------------------------------------
      LOOP:  cpu time    4.99: real time    5.00

 eigenvalue-minimisations  :   392
 total energy-change (2. order) :-0.1573664E-01  (-0.1078712E-03)
 number of electron      16.0000021 magnetization       0.0820449
 augmentation part        1.3154874 magnetization       0.0160788

 DIPCOR: dipole corrections for dipol
 direction  3 min pos    86,
 dipolmoment           0.000000      0.000000      0.000356 electrons x Angstroem
 Tr[quadrupol]       -16.182689

 energy correction for charged system         0.000000 eV
 dipol+quadrupol energy correction           -0.000000 eV
 added-field ion interaction          0.000052 eV  (added to PSCEN)


 Broyden mixing:
  rms(total) = 0.18139E-02    rms(broyden)= 0.17631E-02
  rms(prec ) = 0.30520E-02
  weight for this iteration     100.00

 eigenvalues of (default mixing * dielectric matrix)
  average eigenvalue GAMMA=   1.2447
  3.9236  2.3955  1.5109  0.9278  0.9278  1.0366  0.9117  0.9117  0.3965  0.7203
  0.6549  0.6190

 Free energy of the ion-electron system (eV)
  ---------------------------------------------------
  alpha Z        PSCENC =         0.59689555
  Ewald energy   TEWEN  =       390.88630271
  -1/2 Hartree   DENC   =     -1240.35130802
  -exchange  EXHF       =         0.00000000
  -V(xc)+E(xc)   XCENC  =        69.34704269
  PAW double counting   =      1475.54193888    -1479.96030538
  entropy T*S    EENTRO =         0.01085881
  eigenvalues    EBANDS =      -250.83349898
  atomic energy  EATOM  =      1011.86129086
  ---------------------------------------------------
  free energy    TOTEN  =       -22.90078288 eV

  energy without entropy =      -22.91164169  energy(sigma->0) =      -22.90440249


--------------------------------------------------------------------------------------------------------




----------------------------------------- Iteration    1(  18)  ---------------------------------------


    POTLOK:  cpu time    1.14: real time    1.14
    SETDIJ:  cpu time    0.01: real time    0.01
     EDDAV:  cpu time    3.00: real time    3.00
       DOS:  cpu time    0.00: real time    0.00
    CHARGE:  cpu time    0.24: real time    0.24
    MIXING:  cpu time    0.05: real time    0.05
    --------------------------------------------
      LOOP:  cpu time    4.44: real time    4.45

 eigenvalue-minimisations  :   318
 total energy-change (2. order) :-0.1597759E-02  (-0.6911330E-05)
 number of electron      16.0000021 magnetization       0.0774934
 augmentation part        1.3156017 magnetization       0.0121915

 DIPCOR: dipole corrections for dipol
 direction  3 min pos    86,
 dipolmoment           0.000000      0.000000      0.000386 electrons x Angstroem
 Tr[quadrupol]       -16.197511

 energy correction for charged system         0.000000 eV
 dipol+quadrupol energy correction           -0.000000 eV
 added-field ion interaction          0.000056 eV  (added to PSCEN)


 Broyden mixing:
  rms(total) = 0.13432E-02    rms(broyden)= 0.13286E-02
  rms(prec ) = 0.24296E-02
  weight for this iteration     100.00

 eigenvalues of (default mixing * dielectric matrix)
  average eigenvalue GAMMA=   1.2848
  4.0499  2.4008  1.8309  0.9266  0.9266  1.3753  0.9693  0.9693  0.3965  0.8248
  0.7502  0.6156  0.6661

 Free energy of the ion-electron system (eV)
  ---------------------------------------------------
  alpha Z        PSCENC =         0.59689996
  Ewald energy   TEWEN  =       390.88630271
  -1/2 Hartree   DENC   =     -1240.33612281
  -exchange  EXHF       =         0.00000000
  -V(xc)+E(xc)   XCENC  =        69.34388102
  PAW double counting   =      1475.44895192    -1479.86723988
  entropy T*S    EENTRO =         0.01082731
  eigenvalues    EBANDS =      -250.84717172
  atomic energy  EATOM  =      1011.86129086
  ---------------------------------------------------
  free energy    TOTEN  =       -22.90238064 eV

  energy without entropy =      -22.91320795  energy(sigma->0) =      -22.90598975


--------------------------------------------------------------------------------------------------------




----------------------------------------- Iteration    1(  19)  ---------------------------------------


    POTLOK:  cpu time    1.14: real time    1.14
    SETDIJ:  cpu time    0.01: real time    0.01
     EDDAV:  cpu time    3.06: real time    3.06
       DOS:  cpu time    0.00: real time    0.00
    CHARGE:  cpu time    0.25: real time    0.25
    MIXING:  cpu time    0.05: real time    0.05
    --------------------------------------------
      LOOP:  cpu time    4.51: real time    4.52

 eigenvalue-minimisations  :   328
 total energy-change (2. order) :-0.4782863E-03  (-0.1015083E-04)
 number of electron      16.0000021 magnetization       0.0794270
 augmentation part        1.3156144 magnetization       0.0121552

 DIPCOR: dipole corrections for dipol
 direction  3 min pos    86,
 dipolmoment           0.000000      0.000000      0.000414 electrons x Angstroem
 Tr[quadrupol]       -16.234289

 energy correction for charged system         0.000000 eV
 dipol+quadrupol energy correction           -0.000000 eV
 added-field ion interaction          0.000061 eV  (added to PSCEN)


 Broyden mixing:
  rms(total) = 0.92019E-03    rms(broyden)= 0.91689E-03
  rms(prec ) = 0.14172E-02
  weight for this iteration     100.00

 eigenvalues of (default mixing * dielectric matrix)
  average eigenvalue GAMMA=   1.3040
  4.1648  2.5091  2.3298  0.9266  0.9266  1.4652  0.9401  0.9401  0.9437  0.3965
  0.7133  0.7133  0.6246  0.6617

 Free energy of the ion-electron system (eV)
  ---------------------------------------------------
  alpha Z        PSCENC =         0.59690413
  Ewald energy   TEWEN  =       390.88630271
  -1/2 Hartree   DENC   =     -1240.35930368
  -exchange  EXHF       =         0.00000000
  -V(xc)+E(xc)   XCENC  =        69.34319008
  PAW double counting   =      1475.50487061    -1479.92379004
  entropy T*S    EENTRO =         0.01093530
  eigenvalues    EBANDS =      -250.82325890
  atomic energy  EATOM  =      1011.86129086
  ---------------------------------------------------
  free energy    TOTEN  =       -22.90285893 eV

  energy without entropy =      -22.91379423  energy(sigma->0) =      -22.90650403


--------------------------------------------------------------------------------------------------------




----------------------------------------- Iteration    1(  20)  ---------------------------------------


    POTLOK:  cpu time    1.14: real time    1.14
    SETDIJ:  cpu time    0.01: real time    0.01
     EDDAV:  cpu time    3.24: real time    3.24
       DOS:  cpu time    0.00: real time    0.00
    CHARGE:  cpu time    0.22: real time    0.22
    MIXING:  cpu time    0.05: real time    0.05
    --------------------------------------------
      LOOP:  cpu time    4.65: real time    4.66

 eigenvalue-minimisations  :   356
 total energy-change (2. order) :-0.3854698E-03  (-0.2073418E-05)
 number of electron      16.0000021 magnetization       0.0828687
 augmentation part        1.3155477 magnetization       0.0163797

 DIPCOR: dipole corrections for dipol
 direction  3 min pos    86,
 dipolmoment           0.000000      0.000000      0.000387 electrons x Angstroem
 Tr[quadrupol]       -16.251108

 energy correction for charged system         0.000000 eV
 dipol+quadrupol energy correction           -0.000000 eV
 added-field ion interaction          0.000057 eV  (added to PSCEN)


 Broyden mixing:
  rms(total) = 0.57864E-03    rms(broyden)= 0.57840E-03
  rms(prec ) = 0.91372E-03
  weight for this iteration     100.00

 eigenvalues of (default mixing * dielectric matrix)
  average eigenvalue GAMMA=   1.3441
  4.3247  2.9558  2.3668  0.9263  0.9263  1.5822  1.2335  0.3965  0.9376  0.9376
  0.6317  0.6317  0.7813  0.7813  0.7477

 Free energy of the ion-electron system (eV)
  ---------------------------------------------------
  alpha Z        PSCENC =         0.59690019
  Ewald energy   TEWEN  =       390.88630271
  -1/2 Hartree   DENC   =     -1240.37654469
  -exchange  EXHF       =         0.00000000
  -V(xc)+E(xc)   XCENC  =        69.34301368
  PAW double counting   =      1475.56428346    -1479.98323445
  entropy T*S    EENTRO =         0.01089211
  eigenvalues    EBANDS =      -250.80614826
  atomic energy  EATOM  =      1011.86129086
  ---------------------------------------------------
  free energy    TOTEN  =       -22.90324440 eV

  energy without entropy =      -22.91413651  energy(sigma->0) =      -22.90687510


--------------------------------------------------------------------------------------------------------




----------------------------------------- Iteration    1(  21)  ---------------------------------------


    POTLOK:  cpu time    1.12: real time    1.12
    SETDIJ:  cpu time    0.01: real time    0.01
     EDDAV:  cpu time    3.00: real time    3.00
       DOS:  cpu time    0.00: real time    0.00
    CHARGE:  cpu time    0.25: real time    0.25
    MIXING:  cpu time    0.06: real time    0.06
    --------------------------------------------
      LOOP:  cpu time    4.43: real time    4.44

 eigenvalue-minimisations  :   326
 total energy-change (2. order) :-0.9711429E-03  (-0.2494814E-05)
 number of electron      16.0000021 magnetization       0.0862205
 augmentation part        1.3155303 magnetization       0.0191183

 DIPCOR: dipole corrections for dipol
 direction  3 min pos    82,
 dipolmoment           0.000000      0.000000     -0.000947 electrons x Angstroem
 Tr[quadrupol]       -16.270716

 energy correction for charged system         0.000000 eV
 dipol+quadrupol energy correction           -0.000000 eV
 added-field ion interaction          0.000416 eV  (added to PSCEN)


 Broyden mixing:
  rms(total) = 0.75376E-03    rms(broyden)= 0.75362E-03
  rms(prec ) = 0.82782E-03
  weight for this iteration     100.00

 eigenvalues of (default mixing * dielectric matrix)
  average eigenvalue GAMMA=   1.4210
  4.6375  3.5493  2.3477  2.1043  0.9264  0.9264  1.3925  1.0901  0.9266  0.9266
  0.3965  0.7764  0.7764  0.7049  0.6276  0.6276

 Free energy of the ion-electron system (eV)
  ---------------------------------------------------
  alpha Z        PSCENC =         0.59725934
  Ewald energy   TEWEN  =       390.88630271
  -1/2 Hartree   DENC   =     -1240.39183855
  -exchange  EXHF       =         0.00000000
  -V(xc)+E(xc)   XCENC  =        69.34177570
  PAW double counting   =      1475.59777959    -1480.01638754
  entropy T*S    EENTRO =         0.01092217
  eigenvalues    EBANDS =      -250.79131982
  atomic energy  EATOM  =      1011.86129086
  ---------------------------------------------------
  free energy    TOTEN  =       -22.90421554 eV

  energy without entropy =      -22.91513772  energy(sigma->0) =      -22.90785627


--------------------------------------------------------------------------------------------------------




----------------------------------------- Iteration    1(  22)  ---------------------------------------


    POTLOK:  cpu time    1.13: real time    1.13
    SETDIJ:  cpu time    0.01: real time    0.01
     EDDAV:  cpu time    3.06: real time    3.06
       DOS:  cpu time    0.00: real time    0.00
    CHARGE:  cpu time    0.24: real time    0.24
    MIXING:  cpu time    0.07: real time    0.07
    --------------------------------------------
      LOOP:  cpu time    4.50: real time    4.51

 eigenvalue-minimisations  :   328
 total energy-change (2. order) :-0.6162206E-03  (-0.8866710E-06)
 number of electron      16.0000021 magnetization       0.0866713
 augmentation part        1.3155327 magnetization       0.0211243

 DIPCOR: dipole corrections for dipol
 direction  3 min pos    79,
 dipolmoment           0.000000      0.000000     -0.001348 electrons x Angstroem
 Tr[quadrupol]       -16.281741

 energy correction for charged system         0.000000 eV
 dipol+quadrupol energy correction           -0.000000 eV
 added-field ion interaction          0.001184 eV  (added to PSCEN)


 Broyden mixing:
  rms(total) = 0.71875E-03    rms(broyden)= 0.71776E-03
  rms(prec ) = 0.74329E-03
  weight for this iteration     100.00

 eigenvalues of (default mixing * dielectric matrix)
  average eigenvalue GAMMA=   1.5385
  6.2068  4.0461  2.3880  2.3880  0.9264  0.9264  1.5469  1.0346  1.0213  0.9412
  0.9412  0.3965  0.7278  0.7278  0.6908  0.6227  0.6227

 Free energy of the ion-electron system (eV)
  ---------------------------------------------------
  alpha Z        PSCENC =         0.59802720
  Ewald energy   TEWEN  =       390.88630271
  -1/2 Hartree   DENC   =     -1240.40338761
  -exchange  EXHF       =         0.00000000
  -V(xc)+E(xc)   XCENC  =        69.34112139
  PAW double counting   =      1475.58728161    -1480.00572299
  entropy T*S    EENTRO =         0.01083877
  eigenvalues    EBANDS =      -250.78058370
  atomic energy  EATOM  =      1011.86129086
  ---------------------------------------------------
  free energy    TOTEN  =       -22.90483176 eV

  energy without entropy =      -22.91567053  energy(sigma->0) =      -22.90844469


--------------------------------------------------------------------------------------------------------




----------------------------------------- Iteration    1(  23)  ---------------------------------------


    POTLOK:  cpu time    1.13: real time    1.13
    SETDIJ:  cpu time    0.01: real time    0.01
     EDDAV:  cpu time    3.23: real time    3.24
       DOS:  cpu time    0.00: real time    0.00
    CHARGE:  cpu time    0.24: real time    0.24
    MIXING:  cpu time    0.07: real time    0.07
    --------------------------------------------
      LOOP:  cpu time    4.69: real time    4.70

 eigenvalue-minimisations  :   328
 total energy-change (2. order) :-0.1389487E-03  (-0.2218908E-06)
 number of electron      16.0000021 magnetization       0.0870979
 augmentation part        1.3155204 magnetization       0.0205979

 DIPCOR: dipole corrections for dipol
 direction  3 min pos    86,
 dipolmoment           0.000000      0.000000      0.000175 electrons x Angstroem
 Tr[quadrupol]       -16.284985

 energy correction for charged system         0.000000 eV
 dipol+quadrupol energy correction           -0.000000 eV
 added-field ion interaction          0.000026 eV  (added to PSCEN)


 Broyden mixing:
  rms(total) = 0.12059E-03    rms(broyden)= 0.11961E-03
  rms(prec ) = 0.18880E-03
  weight for this iteration     100.00

 eigenvalues of (default mixing * dielectric matrix)
  average eigenvalue GAMMA=   1.6171
  7.5320  4.1270  2.6037  2.4053  0.9264  0.9264  1.6390  1.3045  1.0937  0.9557
  0.9557  0.3965  0.8126  0.8126  0.7165  0.6606  0.6138  0.6254

 Free energy of the ion-electron system (eV)
  ---------------------------------------------------
  alpha Z        PSCENC =         0.59686910
  Ewald energy   TEWEN  =       390.88630271
  -1/2 Hartree   DENC   =     -1240.41267802
  -exchange  EXHF       =         0.00000000
  -V(xc)+E(xc)   XCENC  =        69.34121743
  PAW double counting   =      1475.58735355    -1480.00583185
  entropy T*S    EENTRO =         0.01088911
  eigenvalues    EBANDS =      -250.77038360
  atomic energy  EATOM  =      1011.86129086
  ---------------------------------------------------
  free energy    TOTEN  =       -22.90497071 eV

  energy without entropy =      -22.91585982  energy(sigma->0) =      -22.90860042


--------------------------------------------------------------------------------------------------------




----------------------------------------- Iteration    1(  24)  ---------------------------------------


    POTLOK:  cpu time    1.14: real time    1.14
    SETDIJ:  cpu time    0.01: real time    0.01
     EDDAV:  cpu time    2.41: real time    2.41
       DOS:  cpu time    0.00: real time    0.00
    CHARGE:  cpu time    0.24: real time    0.24
    MIXING:  cpu time    0.08: real time    0.08
    --------------------------------------------
      LOOP:  cpu time    3.89: real time    3.89

 eigenvalue-minimisations  :   236
 total energy-change (2. order) :-0.4801363E-04  (-0.7014056E-07)
 number of electron      16.0000021 magnetization       0.0871790
 augmentation part        1.3155221 magnetization       0.0206440

 DIPCOR: dipole corrections for dipol
 direction  3 min pos    86,
 dipolmoment           0.000000      0.000000      0.000107 electrons x Angstroem
 Tr[quadrupol]       -16.288784

 energy correction for charged system         0.000000 eV
 dipol+quadrupol energy correction           -0.000000 eV
 added-field ion interaction          0.000016 eV  (added to PSCEN)


 Broyden mixing:
  rms(total) = 0.13715E-03    rms(broyden)= 0.13709E-03
  rms(prec ) = 0.16628E-03
  weight for this iteration     100.00

 eigenvalues of (default mixing * dielectric matrix)
  average eigenvalue GAMMA=   1.6337
  8.1687  4.1555  2.7890  2.4067  1.8227  0.9264  0.9264  1.4764  1.0085  1.0085
  0.9213  0.9213  0.3965  0.7504  0.7504  0.7141  0.6654  0.6163  0.6163

 Free energy of the ion-electron system (eV)
  ---------------------------------------------------
  alpha Z        PSCENC =         0.59685915
  Ewald energy   TEWEN  =       390.88630271
  -1/2 Hartree   DENC   =     -1240.41792479
  -exchange  EXHF       =         0.00000000
  -V(xc)+E(xc)   XCENC  =        69.34118896
  PAW double counting   =      1475.54883247    -1479.96730496
  entropy T*S    EENTRO =         0.01089092
  eigenvalues    EBANDS =      -250.76515405
  atomic energy  EATOM  =      1011.86129086
  ---------------------------------------------------
  free energy    TOTEN  =       -22.90501872 eV

  energy without entropy =      -22.91590965  energy(sigma->0) =      -22.90864903


--------------------------------------------------------------------------------------------------------




----------------------------------------- Iteration    1(  25)  ---------------------------------------


    POTLOK:  cpu time    1.14: real time    1.14
    SETDIJ:  cpu time    0.01: real time    0.01
     EDDAV:  cpu time    2.41: real time    2.41
       DOS:  cpu time    0.00: real time    0.00
    --------------------------------------------
      LOOP:  cpu time    3.56: real time    3.56

 eigenvalue-minimisations  :   236
 total energy-change (2. order) : 0.1931296E-06  (-0.3022109E-07)
 number of electron      16.0000021 magnetization       0.0871790
 augmentation part        1.3155221 magnetization       0.0206440

 DIPCOR: dipole corrections for dipol
 direction  3 min pos    86,
 dipolmoment           0.000000      0.000000      0.000065 electrons x Angstroem
 Tr[quadrupol]       -16.290754

 energy correction for charged system         0.000000 eV
 dipol+quadrupol energy correction           -0.000000 eV
 added-field ion interaction          0.000010 eV  (added to PSCEN)


 Free energy of the ion-electron system (eV)
  ---------------------------------------------------
  alpha Z        PSCENC =         0.59685306
  Ewald energy   TEWEN  =       390.88630271
  -1/2 Hartree   DENC   =     -1240.42039935
  -exchange  EXHF       =         0.00000000
  -V(xc)+E(xc)   XCENC  =        69.34119779
  PAW double counting   =      1475.53610167    -1479.95457089
  entropy T*S    EENTRO =         0.01087673
  eigenvalues    EBANDS =      -250.76267110
  atomic energy  EATOM  =      1011.86129086
  ---------------------------------------------------
  free energy    TOTEN  =       -22.90501853 eV

  energy without entropy =      -22.91589526  energy(sigma->0) =      -22.90864411


--------------------------------------------------------------------------------------------------------




 average (electrostatic) potential at core
  the test charge radii are     0.6991  0.7215
  (the norm of the test charge is              1.0000)
[...]
 Tr[quadrupol]       -15.750851

 energy correction for charged system         0.000000 eV
 dipol+quadrupol energy correction           -0.000000 eV
 added-field ion interaction         -0.000001 eV  (added to PSCEN)


 Broyden mixing:
  rms(total) = 0.17646E-02    rms(broyden)= 0.17571E-02
  rms(prec ) = 0.18201E-02
  weight for this iteration     100.00

 eigenvalues of (default mixing * dielectric matrix)
  average eigenvalue GAMMA=   0.6047
  0.6283  0.6283  0.6963  0.4661

 Free energy of the ion-electron system (eV)
  ---------------------------------------------------
  alpha Z        PSCENC =         0.59684240
  Ewald energy   TEWEN  =       403.97186625
  -1/2 Hartree   DENC   =     -1252.36996003
  -exchange  EXHF       =         0.00000000
  -V(xc)+E(xc)   XCENC  =        69.64395494
  PAW double counting   =      1542.87732675    -1547.35322368
  entropy T*S    EENTRO =         0.01090691
  eigenvalues    EBANDS =      -252.18246811
  atomic energy  EATOM  =      1011.86129086
  ---------------------------------------------------
  free energy    TOTEN  =       -22.94346372 eV

  energy without entropy =      -22.95437063  energy(sigma->0) =      -22.94709936


--------------------------------------------------------------------------------------------------------




----------------------------------------- Iteration   14(   6)  ---------------------------------------


    POTLOK:  cpu time    1.16: real time    1.16
    SETDIJ:  cpu time    0.01: real time    0.01
     EDDAV:  cpu time    2.50: real time    2.51
       DOS:  cpu time    0.00: real time    0.00
    CHARGE:  cpu time    0.24: real time    0.24
    MIXING:  cpu time    0.03: real time    0.03
    --------------------------------------------
      LOOP:  cpu time    3.94: real time    3.95

 eigenvalue-minimisations  :   248
 total energy-change (2. order) : 0.5390759E-05  (-0.2341501E-07)
 number of electron      16.0000015 magnetization       0.0870997
 augmentation part        1.3353489 magnetization       0.0206687

 DIPCOR: dipole corrections for dipol
 direction  3 min pos    86,
 dipolmoment           0.000000      0.000000     -0.000009 electrons x Angstroem
 Tr[quadrupol]       -15.750818

 energy correction for charged system         0.000000 eV
 dipol+quadrupol energy correction           -0.000000 eV
 added-field ion interaction         -0.000001 eV  (added to PSCEN)


 Broyden mixing:
  rms(total) = 0.16198E-02    rms(broyden)= 0.16195E-02
  rms(prec ) = 0.16808E-02
  weight for this iteration     100.00

 eigenvalues of (default mixing * dielectric matrix)
  average eigenvalue GAMMA=   1.0552
  2.3524  0.9124  0.9124  0.7921  0.3067

 Free energy of the ion-electron system (eV)
  ---------------------------------------------------
  alpha Z        PSCENC =         0.59684224
  Ewald energy   TEWEN  =       403.97186625
  -1/2 Hartree   DENC   =     -1252.36994920
  -exchange  EXHF       =         0.00000000
  -V(xc)+E(xc)   XCENC  =        69.64396452
  PAW double counting   =      1542.87718679    -1547.35308284
  entropy T*S    EENTRO =         0.01088086
  eigenvalues    EBANDS =      -252.18245782
  atomic energy  EATOM  =      1011.86129086
  ---------------------------------------------------
  free energy    TOTEN  =       -22.94345833 eV

  energy without entropy =      -22.95433919  energy(sigma->0) =      -22.94708529


--------------------------------------------------------------------------------------------------------




----------------------------------------- Iteration   14(   7)  ---------------------------------------


    POTLOK:  cpu time    1.15: real time    1.15
    SETDIJ:  cpu time    0.01: real time    0.01
     EDDAV:  cpu time    2.37: real time    2.37
       DOS:  cpu time    0.00: real time    0.00
    --------------------------------------------
      LOOP:  cpu time    3.52: real time    3.53

 eigenvalue-minimisations  :   230
 total energy-change (2. order) : 0.3190203E-06  (-0.9943696E-07)
 number of electron      16.0000015 magnetization       0.0870997
 augmentation part        1.3353489 magnetization       0.0206687

 DIPCOR: dipole corrections for dipol
 direction  3 min pos    86,
 dipolmoment           0.000000      0.000000     -0.000008 electrons x Angstroem
 Tr[quadrupol]       -15.750784

 energy correction for charged system         0.000000 eV
 dipol+quadrupol energy correction           -0.000000 eV
 added-field ion interaction         -0.000001 eV  (added to PSCEN)


 Free energy of the ion-electron system (eV)
  ---------------------------------------------------
  alpha Z        PSCENC =         0.59684234
  Ewald energy   TEWEN  =       403.97186625
  -1/2 Hartree   DENC   =     -1252.36998559
  -exchange  EXHF       =         0.00000000
  -V(xc)+E(xc)   XCENC  =        69.64396473
  PAW double counting   =      1542.87617811    -1547.35208052
  entropy T*S    EENTRO =         0.01089606
  eigenvalues    EBANDS =      -252.18243026
  atomic energy  EATOM  =      1011.86129086
  ---------------------------------------------------
  free energy    TOTEN  =       -22.94345801 eV

  energy without entropy =      -22.95435407  energy(sigma->0) =      -22.94709003


--------------------------------------------------------------------------------------------------------




 average (electrostatic) potential at core
  the test charge radii are     0.6991  0.7215
  (the norm of the test charge is              1.0000)
       1 -63.5604       2 -82.5664       3 -82.5685
 
 
 
 E-fermi :  -8.8248     XC(G=0):  -0.4144     alpha+bet : -0.1395


 spin component 1

 k-point   1 :       0.0000    0.0000    0.2500
  band No.  band energies     occupation 
      1     -29.0598      1.00000
      2     -28.0495      1.00000
      3     -13.6709      1.00000
      4     -12.5353      1.00000
      5     -12.5352      1.00000
      6     -12.4813      1.00000
      7      -8.9876      1.02176
      8      -8.9874      1.02183
      9      -0.9338      0.00000
     10      -0.5075      0.00000
     11      -0.5073      0.00000
     12       0.2331      0.00000
     13       0.5888      0.00000
     14       0.8426      0.00000

 k-point   2 :       0.3333    0.0000    0.2500
  band No.  band energies     occupation 
      1     -29.0598      1.00000
      2     -28.0495      1.00000
      3     -13.6709      1.00000
      4     -12.5353      1.00000
      5     -12.5352      1.00000
      6     -12.4813      1.00000
      7      -8.9876      1.02175
      8      -8.9874      1.02183
      9      -0.8928      0.00000
     10      -0.5065      0.00000
     11      -0.5061      0.00000
     12       0.3413      0.00000
     13       0.5011      0.00000
     14       0.8795      0.00000

 k-point   3 :       0.0000    0.3333    0.2500
  band No.  band energies     occupation 
      1     -29.0598      1.00000
      2     -28.0495      1.00000
      3     -13.6709      1.00000
      4     -12.5353      1.00000
      5     -12.5352      1.00000
      6     -12.4813      1.00000
      7      -8.9876      1.02175
      8      -8.9874      1.02183
      9      -0.9158      0.00000
     10      -0.5075      0.00000
     11      -0.5074      0.00000
     12       0.2859      0.00000
     13       0.4213      0.00000
     14       0.7826      0.00000

 k-point   4 :       0.3333    0.3333    0.2500
  band No.  band energies     occupation 
      1     -29.0598      1.00000
      2     -28.0495      1.00000
      3     -13.6709      1.00000
      4     -12.5353      1.00000
      5     -12.5352      1.00000
      6     -12.4813      1.00000
      7      -8.9876      1.02175
      8      -8.9874      1.02183
      9      -0.8776      0.00000
     10      -0.5065      0.00000
     11      -0.5064      0.00000
     12       0.4076      0.00000
     13       0.5660      0.00000
     14       0.6061      0.00000

 k-point   5 :      -0.3333    0.3333    0.2500
  band No.  band energies     occupation 
      1     -29.0598      1.00000
      2     -28.0495      1.00000
      3     -13.6709      1.00000
      4     -12.5353      1.00000
      5     -12.5352      1.00000
      6     -12.4813      1.00000
      7      -8.9876      1.02175
      8      -8.9874      1.02183
      9      -0.8776      0.00000
     10      -0.5064      0.00000
     11      -0.5064      0.00000
     12       0.4083      0.00000
     13       0.5656      0.00000
     14       0.6054      0.00000

 spin component 2

 k-point   1 :       0.0000    0.0000    0.2500
  band No.  band energies     occupation 
      1     -29.0125      1.00000
      2     -27.9913      1.00000
      3     -13.6379      1.00000
      4     -12.4911      1.00000
      5     -12.4911      1.00000
      6     -12.4467      1.00000
      7      -8.9005      0.97821
      8      -8.9004      0.97817
      9      -0.9283      0.00000
     10      -0.4783      0.00000
     11      -0.4782      0.00000
     12       0.2187      0.00000
     13       0.5798      0.00000
     14       0.8403      0.00000

 k-point   2 :       0.3333    0.0000    0.2500
  band No.  band energies     occupation 
      1     -29.0125      1.00000
      2     -27.9913      1.00000
      3     -13.6379      1.00000
      4     -12.4911      1.00000
      5     -12.4911      1.00000
      6     -12.4467      1.00000
      7      -8.9005      0.97825
      8      -8.9005      0.97819
      9      -0.8868      0.00000
     10      -0.4772      0.00000
     11      -0.4770      0.00000
     12       0.3285      0.00000
     13       0.4943      0.00000
     14       0.8695      0.00000

 k-point   3 :       0.0000    0.3333    0.2500
  band No.  band energies     occupation 
      1     -29.0125      1.00000
      2     -27.9913      1.00000
      3     -13.6379      1.00000
      4     -12.4911      1.00000
      5     -12.4911      1.00000
      6     -12.4467      1.00000
      7      -8.9005      0.97823
      8      -8.9004      0.97815
      9      -0.9098      0.00000
     10      -0.4784      0.00000
     11      -0.4783      0.00000
     12       0.2733      0.00000
     13       0.4132      0.00000
     14       0.7663      0.00000

 k-point   4 :       0.3333    0.3333    0.2500
  band No.  band energies     occupation 
      1     -29.0125      1.00000
      2     -27.9913      1.00000
      3     -13.6379      1.00000
      4     -12.4911      1.00000
      5     -12.4911      1.00000
      6     -12.4467      1.00000
      7      -8.9005      0.97825
      8      -8.9005      0.97819
      9      -0.8712      0.00000
     10      -0.4773      0.00000
     11      -0.4772      0.00000
     12       0.3960      0.00000
     13       0.5585      0.00000
     14       0.6022      0.00000

 k-point   5 :      -0.3333    0.3333    0.2500
  band No.  band energies     occupation 
      1     -29.0125      1.00000
      2     -27.9913      1.00000
      3     -13.6379      1.00000
      4     -12.4911      1.00000
      5     -12.4911      1.00000
      6     -12.4467      1.00000
      7      -8.9005      0.97825
      8      -8.9005      0.97819
      9      -0.8712      0.00000
     10      -0.4773      0.00000
     11      -0.4772      0.00000
     12       0.3968      0.00000
     13       0.5581      0.00000
     14       0.6014      0.00000


--------------------------------------------------------------------------------------------------------


 soft charge-density along one line, spin component           1
         0         1         2         3         4         5         6         7         8         9
 total charge-density along one line
 
 soft charge-density along one line, spin component           2
         0         1         2         3         4         5         6         7         8         9
 total charge-density along one line
 
 pseudopotential strength for first ion, spin component:           1
 10.545  14.030  -0.000   0.000   0.000   0.000  -0.000  -0.000
 14.030  18.668  -0.000   0.000   0.000   0.000  -0.000  -0.000
 -0.000  -0.000  -4.618   0.000   0.001   9.034  -0.000  -0.002
  0.000   0.000   0.000  -4.618  -0.000  -0.000   9.034   0.000
  0.000   0.000   0.001  -0.000  -4.667  -0.002   0.000   9.114
  0.000   0.000   9.034  -0.000  -0.002 -19.828   0.000   0.003
 -0.000  -0.000  -0.000   9.034   0.000   0.000 -19.828  -0.000
 -0.000  -0.000  -0.002   0.000   9.114   0.003  -0.000 -19.955
 pseudopotential strength for first ion, spin component:           2
 10.547  14.034  -0.000   0.000   0.000   0.000  -0.000  -0.000
 14.034  18.672  -0.000   0.000   0.000   0.000  -0.000  -0.000
 -0.000  -0.000  -4.619   0.000   0.001   9.036  -0.000  -0.002
  0.000   0.000   0.000  -4.619  -0.000  -0.000   9.036   0.000
  0.000   0.000   0.001  -0.000  -4.668  -0.002   0.000   9.114
  0.000   0.000   9.036  -0.000  -0.002 -19.829   0.000   0.003
 -0.000  -0.000  -0.000   9.036   0.000   0.000 -19.829  -0.000
 -0.000  -0.000  -0.002   0.000   9.114   0.003  -0.000 -19.954
 total augmentation occupancy for first ion, spin component:           1
 11.087  -5.589  -0.000   0.000  -0.000  -0.000   0.000  -0.000
 -5.589   3.024   0.000   0.000   0.000   0.000   0.000   0.000
 -0.000   0.000   1.224   0.000  -0.034   0.079   0.000  -0.006
  0.000   0.000   0.000   1.223   0.000   0.000   0.078   0.000
 -0.000   0.000  -0.034   0.000   2.544  -0.006   0.000   0.319
 -0.000   0.000   0.079   0.000  -0.006   0.005   0.000  -0.001
  0.000   0.000   0.000   0.078   0.000   0.000   0.005   0.000
 -0.000   0.000  -0.006   0.000   0.319  -0.001   0.000   0.048
 total augmentation occupancy for first ion, spin component:           2
  0.006  -0.005  -0.000   0.000  -0.000  -0.000   0.000  -0.000
 -0.005   0.003   0.000   0.000   0.000   0.000   0.000   0.000
 -0.000   0.000  -0.006   0.000  -0.000   0.000   0.000  -0.000
  0.000   0.000   0.000  -0.006   0.000   0.000   0.000   0.000
 -0.000   0.000  -0.000   0.000  -0.001  -0.000   0.000   0.000
 -0.000   0.000   0.000   0.000  -0.000   0.000   0.000  -0.000
  0.000   0.000   0.000   0.000   0.000   0.000   0.000   0.000
 -0.000   0.000  -0.000   0.000   0.000  -0.000   0.000   0.000


------------------------ aborting loop because EDIFF is reached ----------------------------------------


    CHARGE:  cpu time    0.24: real time    0.24
    FORLOC:  cpu time    0.03: real time    0.03
    FORNL :  cpu time    0.79: real time    0.79
    STRESS:  cpu time    2.42: real time    2.42
    FORCOR:  cpu time    1.15: real time    1.15
    FORHAR:  cpu time    0.13: real time    0.13
    MIXING:  cpu time    0.03: real time    0.03

  FORCE on cell =-STRESS in cart. coord.  units (eV):
  Direction    XX          YY          ZZ          XY          YZ          ZX
  --------------------------------------------------------------------------------------
  Alpha Z     0.59684     0.59684     0.59684
  Ewald     763.49513  -119.52429  -239.99898   -20.17389     0.00000    -0.00000
  Hartree   765.94548   302.45420   183.96994    -9.42758    -0.00000    -0.00000
  E(xc)     -72.95925   -75.05900   -75.06059    -0.05392     0.00000     0.00000
  Local   -1691.33312  -416.61578  -177.70663    27.75856     0.00000    -0.00000
  n-local   -54.50200   -48.58400   -48.49381     0.17393    -0.00006    -0.00002
  augment    10.55212    13.27594    13.27321     0.06993    -0.00000     0.00000
  Kinetic   278.12199   343.34902   343.39197     1.67481    -0.00008    -0.00001
  Fock        0.00000     0.00000     0.00000     0.00000     0.00000     0.00000
  -------------------------------------------------------------------------------------
  Total      -0.08279    -0.10705    -0.02805     0.02184     0.00000     0.00000
  in kB      -0.07401    -0.09570    -0.02507     0.01952     0.00000     0.00000
  external pressure =       -0.06 kB  Pullay stress =        0.00 kB


 VOLUME and BASIS-vectors are now :
 -----------------------------------------------------------------------------
  energy-cutoff  :      500.00
  volume of cell :     1792.22
      direct lattice vectors                 reciprocal lattice vectors
    10.160000000  0.000000000  0.000000000     0.098425197  0.000000000  0.000000000
     0.000000000 11.760000000  0.000000000     0.000000000  0.085034014  0.000000000
     0.000000000  0.000000000 15.000000000     0.000000000  0.000000000  0.066666667

  length of vectors
    10.160000000 11.760000000 15.000000000     0.098425197  0.085034014  0.066666667


 FORCES acting on ions
    electron-ion (+dipol)            ewald-force                    non-local-force                 convergence-correction
 -----------------------------------------------------------------------------------------------
   0.136E-02 -.399E-01 -.329E-05   0.105E-01 0.397E-01 0.542E-19   0.838E-03 -.138E-02 0.000E+00   -.106E-01 0.254E-03 -.944E-12
   0.271E+03 -.708E+01 0.330E-05   -.335E+03 0.871E+01 0.000E+00   0.638E+02 -.163E+01 0.000E+00   0.155E-03 0.402E-03 -.266E-11
   -.271E+03 0.711E+01 -.132E-04   0.335E+03 -.875E+01 -.542E-19   -.639E+02 0.165E+01 0.000E+00   0.330E-03 -.585E-03 -.703E-12
 -----------------------------------------------------------------------------------------------
   0.116E-01 -.112E-01 -.132E-04   0.000E+00 0.000E+00 0.000E+00   -.255E-02 0.977E-02 0.000E+00   -.101E-01 0.713E-04 -.431E-11
 
 
 POSITION                                       TOTAL-FORCE (eV/Angst)
 -----------------------------------------------------------------------------------
     -0.00004     -0.00002      0.00000         0.002461     -0.000858      0.000000
      8.98383      0.03006      0.00000        -0.001326     -0.001406      0.000000
      1.17611     11.72972      0.00000        -0.001135      0.002264      0.000000
 -----------------------------------------------------------------------------------
    total drift:                               -0.001069     -0.001348     -0.000013


--------------------------------------------------------------------------------------------------------



  FREE ENERGIE OF THE ION-ELECTRON SYSTEM (eV)
  ---------------------------------------------------
  free  energy   TOTEN  =       -22.94345801 eV

  energy  without entropy=      -22.95435407  energy(sigma->0) =      -22.94709003
 
 d Force = 0.3537375E-04[-0.190E-05, 0.726E-04]  d Energy = 0.3383470E-04 0.154E-05
 d Force = 0.2637683E-02[ 0.246E-02, 0.282E-02]  d Ewald  = 0.2637684E-02-0.214E-09


--------------------------------------------------------------------------------------------------------


    POTLOK:  cpu time    1.17: real time    1.17


--------------------------------------------------------------------------------------------------------




--------------------------------------------------------------------------------------------------------


  
 reached required accuracy - stopping structural energy minimisation
     LOOP+:  cpu time   34.67: real time   34.72
    4ORBIT:  cpu time    0.00: real time    0.00

 total amount of memory used by VASP on root node   133001. kBytes
========================================================================

   base      :      30000. kBytes
   nonlr-proj:         76. kBytes
   fftplans  :      22742. kBytes
   grid      :      54677. kBytes
   one-center:          6. kBytes
   wavefun   :      25500. kBytes
 
  
  
 General timing and accounting informations for this job:
 ========================================================
  
                  Total CPU time used (sec):      503.356
                            User time (sec):      497.423
                          System time (sec):        5.932
                         Elapsed time (sec):      505.303
  
                   Maximum memory used (kb):      207764.
                   Average memory used (kb):           0.
  
                          Minor page faults:      2094644
                          Major page faults:            2
                 Voluntary context switches:         1714
