Warning: no access to tty (Bad file descriptor).
Thus no job control in this shell.
stty: standard input: Inappropriate ioctl for device
 running on    4 total cores
 distrk:  each k-point on    4 cores,    1 groups
 distr:  one band on    4 cores,    1 groups
 using from now: INCAR     
 vasp.5.3.3 18Dez12 (build Aug 26 2015 16:06:49) complex                        
  
 POSCAR found :  2 types and       3 ions
 scaLAPACK will be used

 ----------------------------------------------------------------------------- 
|                                                                             |
|  ADVICE TO THIS USER RUNNING 'VASP/VAMP'   (HEAR YOUR MASTER'S VOICE ...):  |
|                                                                             |
|      You have a (more or less) 'small supercell' and for smaller cells      |
|      it is recommended  to use the reciprocal-space projection scheme!      |
|      The real space optimization is not  efficient for small cells and it   |
|      is also less accurate ...                                              |
|      Therefore set LREAL=.FALSE. in the  INCAR file                         |
|                                                                             |
 ----------------------------------------------------------------------------- 

 LDA part: xc-table for Pade appr. of Perdew
 POSCAR, INCAR and KPOINTS ok, starting setup
 WARNING: small aliasing (wrap around) errors must be expected
 FFT: planning ...
 WAVECAR not read
 entering main loop
       N       E                     dE             d eps       ncg     rms          rms(c)
DAV:   1     0.107445031471E+03    0.10745E+03   -0.36688E+03   408   0.556E+02
DAV:   2     0.781305690456E+01   -0.99632E+02   -0.96009E+02   502   0.137E+02
DAV:   3    -0.213198006214E+02   -0.29133E+02   -0.26335E+02   452   0.688E+01
DAV:   4    -0.233437725640E+02   -0.20240E+01   -0.20226E+01   334   0.162E+01
DAV:   5    -0.233696715195E+02   -0.25899E-01   -0.25723E-01   348   0.208E+00    0.137E+01
DAV:   6    -0.142224086223E+02    0.91473E+01   -0.12195E+01   292   0.237E+01    0.482E+00
DAV:   7    -0.196609653432E+02   -0.54386E+01   -0.36009E+00   322   0.995E+00    0.282E+00
DAV:   8    -0.219856367317E+02   -0.23247E+01   -0.11065E+00   298   0.554E+00    0.156E+00
DAV:   9    -0.222552672577E+02   -0.26963E+00   -0.50907E-02   358   0.200E+00    0.728E-01
DAV:  10    -0.224130318548E+02   -0.15776E+00   -0.27319E-02   286   0.109E+00    0.507E-01
DAV:  11    -0.224873831718E+02   -0.74351E-01   -0.43383E-03   316   0.539E-01    0.271E-01
DAV:  12    -0.226240613568E+02   -0.13668E+00   -0.59377E-03   328   0.417E-01    0.190E-01
DAV:  13    -0.227277181967E+02   -0.10366E+00   -0.16343E-03   316   0.228E-01    0.117E-01
DAV:  14    -0.227686721053E+02   -0.40954E-01   -0.37844E-04   328   0.108E-01    0.112E-01
DAV:  15    -0.227906243192E+02   -0.21952E-01   -0.14065E-04   304   0.717E-02    0.687E-02
DAV:  16    -0.228850462471E+02   -0.94422E-01   -0.22001E-03   322   0.201E-01    0.127E-01
DAV:  17    -0.229007828834E+02   -0.15737E-01   -0.10787E-03   392   0.147E-01    0.181E-02
DAV:  18    -0.229023806427E+02   -0.15978E-02   -0.69113E-05   318   0.529E-02    0.134E-02
DAV:  19    -0.229028589290E+02   -0.47829E-03   -0.10151E-04   328   0.564E-02    0.920E-03
DAV:  20    -0.229032443987E+02   -0.38547E-03   -0.20734E-05   356   0.296E-02    0.579E-03
DAV:  21    -0.229042155416E+02   -0.97114E-03   -0.24948E-05   326   0.261E-02    0.754E-03
DAV:  22    -0.229048317622E+02   -0.61622E-03   -0.88667E-06   328   0.162E-02    0.719E-03
DAV:  23    -0.229049707109E+02   -0.13895E-03   -0.22189E-06   328   0.946E-03    0.121E-03
DAV:  24    -0.229050187245E+02   -0.48014E-04   -0.70141E-07   236   0.546E-03    0.137E-03
DAV:  25    -0.229050185314E+02    0.19313E-06   -0.30221E-07   236   0.329E-03
   1 F= -.22905019E+02 E0= -.22908644E+02  d E =-.229050E+02  mag=     0.0870
 curvature:   0.00 expect dE= 0.000E+00 dE for cont linesearch  0.000E+00
 trial: gam= 0.00000 g(F)=  0.340E+00 g(S)=  0.000E+00 ort = 0.000E+00 (trialstep = 0.100E+01)
 search vector abs. value=  0.340E+00
 bond charge predicted
       N       E                     dE             d eps       ncg     rms          rms(c)
DAV:   1    -0.223287829769E+02    0.57624E+00   -0.92010E+01   280   0.828E+01    0.355E+00
DAV:   2    -0.223848577840E+02   -0.56075E-01   -0.20933E+00   316   0.121E+01    0.158E+00
DAV:   3    -0.223339610774E+02    0.50897E-01   -0.10327E-01   340   0.272E+00    0.781E-01
DAV:   4    -0.223290012348E+02    0.49598E-02   -0.35727E-02   286   0.142E+00    0.684E-01
DAV:   5    -0.223336878387E+02   -0.46866E-02   -0.32361E-03   280   0.408E-01    0.236E-01
DAV:   6    -0.223339949430E+02   -0.30710E-03   -0.19274E-03   376   0.334E-01    0.497E-02
DAV:   7    -0.223342055692E+02   -0.21063E-03   -0.17046E-04   346   0.927E-02    0.247E-02
DAV:   8    -0.223342960599E+02   -0.90491E-04   -0.13485E-05   348   0.327E-02    0.134E-02
DAV:   9    -0.223343649811E+02   -0.68921E-04   -0.62825E-05   334   0.209E-02    0.332E-02
DAV:  10    -0.223343441407E+02    0.20840E-04   -0.17475E-06   324   0.165E-02    0.260E-02
DAV:  11    -0.223343697566E+02   -0.25616E-04   -0.14477E-06   266   0.111E-02    0.776E-03
DAV:  12    -0.223344675536E+02   -0.97797E-04   -0.76088E-06   316   0.162E-02    0.603E-03
DAV:  13    -0.223345441655E+02   -0.76612E-04   -0.49048E-06   328   0.122E-02    0.418E-03
DAV:  14    -0.223345939197E+02   -0.49754E-04   -0.27408E-06   312   0.818E-03    0.178E-03
DAV:  15    -0.223346467717E+02   -0.52852E-04   -0.20542E-06   352   0.687E-03    0.123E-03
DAV:  16    -0.223346866477E+02   -0.39876E-04   -0.81245E-07   272   0.474E-03    0.104E-03
DAV:  17    -0.223347164933E+02   -0.29846E-04   -0.14014E-06   324   0.493E-03    0.873E-04
DAV:  18    -0.223347259230E+02   -0.94297E-05   -0.29760E-07   290   0.304E-03    0.239E-04
DAV:  19    -0.223347306141E+02   -0.46912E-05   -0.18472E-07   272   0.221E-03    0.302E-04
DAV:  20    -0.223347337962E+02   -0.31820E-05   -0.11499E-07   272   0.165E-03    0.129E-04
DAV:  21    -0.223347351284E+02   -0.13322E-05   -0.52501E-08   272   0.119E-03    0.754E-05
DAV:  22    -0.223347357631E+02   -0.63473E-06   -0.23087E-08   260   0.737E-04
   2 F= -.22334736E+02 E0= -.22338375E+02  d E =0.570283E+00  mag=     0.0876
 trial-energy change:    0.570283  1 .order    0.668625   -0.340058    1.677307
 step:   0.2185(harm=  0.1686)  dis= 0.01982  next Energy=   -22.943198 (dE=-0.382E-01)
 bond charge predicted
       N       E                     dE             d eps       ncg     rms          rms(c)
DAV:   1    -0.229714611852E+02   -0.63673E+00   -0.55337E+01   280   0.625E+01    0.284E+00
DAV:   2    -0.229646668159E+02    0.67944E-02   -0.13447E+00   382   0.916E+00    0.128E+00
DAV:   3    -0.229401762417E+02    0.24491E-01   -0.48492E-02   324   0.196E+00    0.756E-01
DAV:   4    -0.229342592685E+02    0.59170E-02   -0.21771E-02   322   0.108E+00    0.714E-01
DAV:   5    -0.229427265660E+02   -0.84673E-02   -0.35218E-03   310   0.427E-01    0.189E-01
DAV:   6    -0.229430499584E+02   -0.32339E-03   -0.44373E-04   334   0.207E-01    0.135E-01
DAV:   7    -0.229430032546E+02    0.46704E-04   -0.93018E-05   316   0.877E-02    0.103E-01
DAV:   8    -0.229431518690E+02   -0.14861E-03   -0.26535E-03   328   0.973E-02    0.163E-01
DAV:   9    -0.229432138432E+02   -0.61974E-04   -0.83978E-05   310   0.102E-01    0.110E-01
DAV:  10    -0.229431161297E+02    0.97714E-04   -0.92566E-06   310   0.516E-02    0.142E-02
DAV:  11    -0.229433676370E+02   -0.25151E-03   -0.15209E-05   304   0.466E-02    0.547E-03
DAV:  12    -0.229434054103E+02   -0.37773E-04   -0.58547E-06   322   0.172E-02    0.480E-03
DAV:  13    -0.229434223225E+02   -0.16912E-04   -0.31394E-06   316   0.112E-02    0.273E-03
DAV:  14    -0.229434284844E+02   -0.61619E-05   -0.10465E-06   236   0.696E-03    0.225E-03
DAV:  15    -0.229434379878E+02   -0.95034E-05   -0.96209E-07   200   0.585E-03    0.210E-03
DAV:  16    -0.229434445599E+02   -0.65721E-05   -0.35413E-07   248   0.403E-03    0.710E-04
DAV:  17    -0.229434541509E+02   -0.95910E-05   -0.45427E-07   242   0.357E-03    0.437E-04
DAV:  18    -0.229434580412E+02   -0.38903E-05   -0.25389E-07   248   0.286E-03    0.518E-04
DAV:  19    -0.229434601187E+02   -0.20776E-05   -0.11842E-07   254   0.186E-03    0.356E-04
DAV:  20    -0.229434614739E+02   -0.13552E-05   -0.66464E-08   230   0.124E-03    0.745E-05
DAV:  21    -0.229434620954E+02   -0.62147E-06   -0.29954E-08   224   0.863E-04
   3 F= -.22943462E+02 E0= -.22947093E+02  d E =-.384436E-01  mag=     0.0871
 curvature:  -0.08 expect dE=-0.110E-05 dE for cont linesearch -0.265E-06
 ZBRENT: interpolating
 opt :   0.2190  next Energy=   -22.943462 (dE=-0.384E-01)
 bond charge predicted
       N       E                     dE             d eps       ncg     rms          rms(c)
DAV:   1    -0.229434628384E+02   -0.13645E-05   -0.20994E-05   280   0.390E-02    0.167E-03
DAV:   2    -0.229434630185E+02   -0.18015E-06   -0.43963E-07   212   0.550E-03
   4 F= -.22943463E+02 E0= -.22947094E+02  d E =-.384445E-01  mag=     0.0871
 curvature:  -0.08 expect dE=-0.816E-06 dE for cont linesearch -0.282E-07
 ZBRENT: interpolating
 opt :   0.2192  next Energy=   -22.943463 (dE=-0.384E-01)
 bond charge predicted
       N       E                     dE             d eps       ncg     rms          rms(c)
DAV:   1    -0.229434631559E+02   -0.31749E-06   -0.50979E-06   322   0.192E-02    0.122E-03
DAV:   2    -0.229434631918E+02   -0.35990E-07   -0.90853E-08   254   0.252E-03
   5 F= -.22943463E+02 E0= -.22947092E+02  d E =-.384447E-01  mag=     0.0871
 curvature:  -0.12 expect dE=-0.119E-05 dE for cont linesearch -0.536E-09
 ZBRENT: interpolating
 opt :   0.2192  next Energy=   -22.943463 (dE=-0.384E-01)
 bond charge predicted
       N       E                     dE             d eps       ncg     rms          rms(c)
DAV:   1    -0.229434632352E+02   -0.79354E-07   -0.74140E-08   236   0.242E-03    0.813E-04
DAV:   2    -0.229434632171E+02    0.18142E-07   -0.20573E-08   236   0.119E-03
   6 F= -.22943463E+02 E0= -.22947091E+02  d E =-.384447E-01  mag=     0.0871
 curvature:  -0.11 expect dE=-0.107E-05 dE for cont linesearch -0.161E-09
 ZBRENT: interpolating
 opt :   0.2192  next Energy=   -22.943463 (dE=-0.384E-01)
 bond charge predicted
       N       E                     dE             d eps       ncg     rms          rms(c)
DAV:   1    -0.229434632954E+02   -0.60236E-07   -0.99857E-08   236   0.275E-03    0.197E-04
DAV:   2    -0.229434633247E+02   -0.29258E-07   -0.79753E-09   236   0.849E-04
   7 F= -.22943463E+02 E0= -.22947094E+02  d E =-.384448E-01  mag=     0.0871
 curvature:  -0.25 expect dE=-0.253E-05 dE for cont linesearch -0.695E-09
 ZBRENT: interpolating
 opt :   0.2192  next Energy=   -22.943463 (dE=-0.384E-01)
 bond charge predicted
       N       E                     dE             d eps       ncg     rms          rms(c)
DAV:   1    -0.229434633371E+02   -0.41673E-07   -0.24510E-08   266   0.139E-03    0.193E-04
DAV:   2    -0.229434633584E+02   -0.21310E-07   -0.18960E-09   242   0.440E-04
   8 F= -.22943463E+02 E0= -.22947094E+02  d E =-.384448E-01  mag=     0.0871
 curvature:  -0.06 expect dE=-0.557E-06 dE for cont linesearch -0.285E-09
 ZBRENT: interpolating
 opt :   0.2192  next Energy=   -22.943463 (dE=-0.384E-01)
 bond charge predicted
       N       E                     dE             d eps       ncg     rms          rms(c)
DAV:   1    -0.229434633627E+02   -0.25597E-07   -0.85214E-09   224   0.833E-04    0.280E-04
DAV:   2    -0.229434633785E+02   -0.15775E-07   -0.12330E-09   260   0.330E-04
   9 F= -.22943463E+02 E0= -.22947095E+02  d E =-.384448E-01  mag=     0.0871
 curvature:  -0.02 expect dE=-0.230E-06 dE for cont linesearch -0.245E-11
 ZBRENT: interpolating
 opt :   0.2192  next Energy=   -22.943463 (dE=-0.384E-01)
 bond charge predicted
       N       E                     dE             d eps       ncg     rms          rms(c)
DAV:   1    -0.229434633861E+02   -0.23350E-07   -0.48165E-10   242   0.199E-04    0.179E-04
DAV:   2    -0.229434633986E+02   -0.12519E-07   -0.93021E-10   242   0.305E-04
  10 F= -.22943463E+02 E0= -.22947095E+02  d E =-.384449E-01  mag=     0.0871
 curvature:  -0.04 expect dE=-0.358E-06 dE for cont linesearch -0.987E-11
 ZBRENT: bisectioning
 opt :   0.2192  next Energy=   -22.943463 (dE=-0.384E-01)
 bond charge predicted
       N       E                     dE             d eps       ncg     rms          rms(c)
DAV:   1    -0.229434633987E+02   -0.12647E-07   -0.14079E-09   218   0.411E-04    0.506E-04
DAV:   2    -0.229434634067E+02   -0.79551E-08   -0.36417E-09   248   0.584E-04
  11 F= -.22943463E+02 E0= -.22947094E+02  d E =-.384449E-01  mag=     0.0871
 curvature:  -0.17 expect dE=-0.167E-05 dE for cont linesearch -0.755E-11
 ZBRENT: bisectioning
 opt :   0.2192  next Energy=   -22.943463 (dE=-0.384E-01)
 bond charge predicted
       N       E                     dE             d eps       ncg     rms          rms(c)
DAV:   1    -0.229434633925E+02    0.62005E-08   -0.15556E-09   284   0.445E-04    0.903E-04
DAV:   2    -0.229434633634E+02    0.29125E-07   -0.90971E-09   260   0.806E-04
  12 F= -.22943463E+02 E0= -.22947097E+02  d E =-.384448E-01  mag=     0.0871
 curvature:  -0.09 expect dE=-0.884E-06 dE for cont linesearch -0.786E-12
 trial: gam= 0.00003 g(F)=  0.997E-05 g(S)=  0.000E+00 ort =-0.174E-05 (trialstep = 0.844E+00)
 search vector abs. value=  0.997E-05
 bond charge predicted
       N       E                     dE             d eps       ncg     rms          rms(c)
DAV:   1    -0.229434280785E+02    0.35314E-04   -0.16364E-03   328   0.366E-01    0.164E-02
DAV:   2    -0.229434302096E+02   -0.21312E-05   -0.63289E-05   334   0.675E-02    0.128E-02
DAV:   3    -0.229434272670E+02    0.29426E-05   -0.25075E-06   346   0.217E-02    0.758E-03
DAV:   4    -0.229434240024E+02    0.32646E-05   -0.41599E-06   328   0.184E-02    0.457E-03
DAV:   5    -0.229434241801E+02   -0.17766E-06   -0.62152E-07   248   0.647E-03
  13 F= -.22943424E+02 E0= -.22947047E+02  d E =0.391833E-04  mag=     0.0871
 trial-energy change:    0.000039  1 .order    0.000035   -0.000008    0.000079
 step:   0.0648(harm=  0.0815)  dis= 0.00004  next Energy=   -22.943464 (dE=-0.321E-06)
 bond charge predicted
       N       E                     dE             d eps       ncg     rms          rms(c)
DAV:   1    -0.229434601337E+02   -0.36131E-04   -0.13877E-03   328   0.337E-01    0.157E-02
DAV:   2    -0.229434641439E+02   -0.40102E-05   -0.52430E-05   328   0.621E-02    0.149E-02
DAV:   3    -0.229434621675E+02    0.19764E-05   -0.12776E-06   254   0.158E-02    0.116E-02
DAV:   4    -0.229434618842E+02    0.28322E-06   -0.10010E-05   340   0.184E-02    0.135E-02
DAV:   5    -0.229434637246E+02   -0.18403E-05   -0.84772E-07   248   0.953E-03    0.176E-02
DAV:   6    -0.229434583338E+02    0.53908E-05   -0.23415E-07   248   0.615E-03    0.162E-02
DAV:   7    -0.229434580148E+02    0.31902E-06   -0.99437E-07   230   0.104E-02
  14 F= -.22943458E+02 E0= -.22947090E+02  d E =0.534859E-05  mag=     0.0871
 curvature:  -0.04 expect dE=-0.333E-07 dE for cont linesearch -0.242E-07
 trial: gam=-0.16217 g(F)=  0.817E-06 g(S)=  0.000E+00 ort = 0.243E-05 (trialstep = 0.688E+00)
 search vector abs. value=  0.290E-06
 reached required accuracy - stopping structural energy minimisation
