Beta12Borophene !The name of the system 
           1
    10.160000    0.000000    0.000000
     0.000000   11.760000    0.000000
     0.000000    0.000000   15.000000
   C    O 
   1   2
Direct configuration=     1
   0.00000000  0.00000000  0.00000000
   0.88228000  0.00259000  0.00000000
   0.11771000  0.99739000  0.00000000
Direct configuration=     2
  -0.00003396 -0.00000455  0.00000000
   0.89120932  0.00243643  0.00000000
   0.10881464  0.99754813  0.00000000
Direct configuration=     3
  -0.00000742 -0.00000099  0.00000000
   0.88423116  0.00255644  0.00000000
   0.11576626  0.99742455  0.00000000
Direct configuration=     4
  -0.00000744 -0.00000100  0.00000000
   0.88423547  0.00255637  0.00000000
   0.11576197  0.99742463  0.00000000
Direct configuration=     5
  -0.00000745 -0.00000100  0.00000000
   0.88423765  0.00255633  0.00000000
   0.11575979  0.99742467  0.00000000
Direct configuration=     6
  -0.00000744 -0.00000100  0.00000000
   0.88423743  0.00255633  0.00000000
   0.11576001  0.99742466  0.00000000
Direct configuration=     7
  -0.00000744 -0.00000100  0.00000000
   0.88423715  0.00255634  0.00000000
   0.11576030  0.99742466  0.00000000
Direct configuration=     8
  -0.00000744 -0.00000100  0.00000000
   0.88423731  0.00255634  0.00000000
   0.11576013  0.99742466  0.00000000
Direct configuration=     9
  -0.00000744 -0.00000100  0.00000000
   0.88423722  0.00255634  0.00000000
   0.11576023  0.99742466  0.00000000
Direct configuration=    10
  -0.00000744 -0.00000100  0.00000000
   0.88423720  0.00255634  0.00000000
   0.11576024  0.99742466  0.00000000
Direct configuration=    11
  -0.00000744 -0.00000100  0.00000000
   0.88423718  0.00255634  0.00000000
   0.11576027  0.99742466  0.00000000
Direct configuration=    12
  -0.00000744 -0.00000100  0.00000000
   0.88423716  0.00255634  0.00000000
   0.11576028  0.99742466  0.00000000
Direct configuration=    13
   0.00003863 -0.00000485  0.00000000
   0.88421433  0.00255207  0.00000000
   0.11573704  0.99743278  0.00000000
Direct configuration=    14
  -0.00000390 -0.00000129  0.00000000
   0.88423541  0.00255601  0.00000000
   0.11575850  0.99742528  0.00000000
