  41  41   0   0
  0.4371278E+02  0.1016000E-08  0.1176000E-08  0.1500000E-08  0.5000000E-15
  1.000000000000000E-004
  CAR 
 Beta12Borophene !The name of the system 
      2.61722074    -18.30122584  301     -3.05265600      1.00000000
    -18.301  0.0000E+00  0.0000E+00  0.0000E+00  0.0000E+00
    -18.231  0.0000E+00  0.0000E+00  0.0000E+00  0.0000E+00
    -18.162 -0.2653E-34 -0.2670E-34 -0.1850E-35 -0.1862E-35
    -18.092 -0.2445E-29 -0.2460E-29 -0.1705E-30 -0.1715E-30
    -18.022 -0.8458E-25 -0.8504E-25 -0.5898E-26 -0.5930E-26
    -17.953 -0.1097E-20 -0.1102E-20 -0.7651E-22 -0.7688E-22
    -17.883 -0.5153E-17 -0.5176E-17 -0.3594E-18 -0.3610E-18
    -17.813 -0.9325E-14 -0.9360E-14 -0.6505E-15 -0.6530E-15
    -17.743 -0.6257E-11 -0.6277E-11 -0.4369E-12 -0.4384E-12
    -17.674 -0.1560E-08 -0.1565E-08 -0.1092E-09 -0.1095E-09
    -17.604 -0.1443E-06 -0.1446E-06 -0.1017E-07 -0.1019E-07
    -17.534 -0.4916E-05 -0.4925E-05 -0.3530E-06 -0.3536E-06
    -17.464 -0.5938E-04 -0.5945E-04 -0.4494E-05 -0.4499E-05
    -17.395 -0.1905E-03 -0.1906E-03 -0.1778E-04 -0.1779E-04
    -17.325  0.5614E-03  0.5625E-03  0.2137E-04  0.2144E-04
    -17.255  0.3871E-02  0.3874E-02  0.2913E-03  0.2916E-03
    -17.186  0.7099E-02  0.7100E-02  0.7863E-03  0.7866E-03
    -17.116  0.7254E-02  0.7254E-02  0.1292E-02  0.1292E-02
    -17.046  0.6264E-02  0.6263E-02  0.1729E-02  0.1729E-02
    -16.976  0.3880E-02  0.3877E-02  0.1999E-02  0.2000E-02
    -16.907  0.3841E-02  0.3839E-02  0.2267E-02  0.2267E-02
    -16.837  0.5249E-02  0.5250E-02  0.2633E-02  0.2633E-02
    -16.767  0.5284E-02  0.5284E-02  0.3002E-02  0.3002E-02
    -16.697  0.3837E-02  0.3837E-02  0.3269E-02  0.3269E-02
    -16.628  0.9800E-03  0.9801E-03  0.3338E-02  0.3338E-02
    -16.558  0.2012E-02  0.2013E-02  0.3478E-02  0.3478E-02
    -16.488  0.5021E-02  0.5021E-02  0.3828E-02  0.3828E-02
    -16.419  0.5463E-02  0.5463E-02  0.4209E-02  0.4209E-02
    -16.349  0.4712E-02  0.4711E-02  0.4537E-02  0.4537E-02
    -16.279  0.1980E-02  0.1979E-02  0.4675E-02  0.4675E-02
    -16.209 -0.9954E-05 -0.1008E-04  0.4675E-02  0.4675E-02
    -16.140 -0.3114E-03 -0.3114E-03  0.4653E-02  0.4653E-02
    -16.070  0.1614E-03  0.1618E-03  0.4664E-02  0.4664E-02
    -16.000  0.2928E-02  0.2929E-02  0.4869E-02  0.4869E-02
    -15.930  0.5519E-02  0.5519E-02  0.5253E-02  0.5253E-02
    -15.861  0.5640E-02  0.5640E-02  0.5647E-02  0.5647E-02
    -15.791  0.4210E-02  0.4209E-02  0.5940E-02  0.5940E-02
    -15.721  0.1117E-02  0.1116E-02  0.6018E-02  0.6018E-02
    -15.652 -0.1671E-03 -0.1672E-03  0.6006E-02  0.6006E-02
    -15.582 -0.8539E-04 -0.8534E-04  0.6000E-02  0.6000E-02
    -15.512 -0.3940E-04 -0.3942E-04  0.5998E-02  0.5998E-02
    -15.442 -0.1867E-03 -0.1867E-03  0.5985E-02  0.5985E-02
    -15.373  0.1864E-03  0.1869E-03  0.5998E-02  0.5998E-02
    -15.303  0.2978E-02  0.2979E-02  0.6205E-02  0.6205E-02
    -15.233  0.5651E-02  0.5651E-02  0.6599E-02  0.6600E-02
    -15.163  0.5786E-02  0.5786E-02  0.7003E-02  0.7003E-02
    -15.094  0.4071E-02  0.4070E-02  0.7287E-02  0.7287E-02
    -15.024  0.9353E-03  0.9344E-03  0.7352E-02  0.7352E-02
    -14.954 -0.1865E-03 -0.1866E-03  0.7339E-02  0.7339E-02
    -14.885 -0.8110E-04 -0.8105E-04  0.7333E-02  0.7333E-02
    -14.815 -0.7090E-04 -0.7094E-04  0.7328E-02  0.7328E-02
    -14.745 -0.5338E-04 -0.5322E-04  0.7325E-02  0.7325E-02
    -14.675  0.9646E-03  0.9655E-03  0.7392E-02  0.7392E-02
    -14.606  0.2543E-02  0.2544E-02  0.7569E-02  0.7569E-02
    -14.536  0.2804E-02  0.2804E-02  0.7765E-02  0.7765E-02
    -14.466  0.2348E-02  0.2348E-02  0.7928E-02  0.7929E-02
    -14.396  0.1542E-02  0.1542E-02  0.8036E-02  0.8036E-02
    -14.327  0.2088E-02  0.2089E-02  0.8182E-02  0.8182E-02
    -14.257  0.1985E-02  0.1984E-02  0.8320E-02  0.8320E-02
    -14.187  0.2660E-02  0.2661E-02  0.8505E-02  0.8506E-02
    -14.118  0.6466E-02  0.6469E-02  0.8956E-02  0.8957E-02
    -14.048  0.7698E-02  0.7697E-02  0.9493E-02  0.9493E-02
    -13.978  0.2791E-02  0.2788E-02  0.9688E-02  0.9688E-02
    -13.908  0.5713E-03  0.5704E-03  0.9728E-02  0.9728E-02
    -13.839  0.1499E-02  0.1499E-02  0.9832E-02  0.9832E-02
    -13.769  0.6365E-03  0.6370E-03  0.9876E-02  0.9876E-02
    -13.699  0.9465E-03  0.9453E-03  0.9942E-02  0.9942E-02
    -13.629  0.3777E-02  0.3777E-02  0.1021E-01  0.1021E-01
    -13.560  0.6089E-02  0.6092E-02  0.1063E-01  0.1063E-01
    -13.490  0.6380E-02  0.6381E-02  0.1108E-01  0.1108E-01
    -13.420  0.6025E-02  0.6024E-02  0.1150E-01  0.1150E-01
    -13.351  0.9166E-02  0.9166E-02  0.1213E-01  0.1213E-01
    -13.281  0.8420E-02  0.8420E-02  0.1272E-01  0.1272E-01
    -13.211  0.3970E-02  0.3969E-02  0.1300E-01  0.1300E-01
    -13.141  0.5172E-02  0.5171E-02  0.1336E-01  0.1336E-01
    -13.072  0.7095E-02  0.7095E-02  0.1385E-01  0.1385E-01
    -13.002  0.3307E-02  0.3307E-02  0.1408E-01  0.1408E-01
    -12.932  0.4057E-02  0.4057E-02  0.1437E-01  0.1437E-01
    -12.862  0.4752E-02  0.4752E-02  0.1470E-01  0.1470E-01
    -12.793  0.2897E-02  0.2897E-02  0.1490E-01  0.1490E-01
    -12.723  0.1960E-02  0.1961E-02  0.1504E-01  0.1504E-01
    -12.653  0.2050E-02  0.2050E-02  0.1518E-01  0.1518E-01
    -12.584  0.4094E-02  0.4093E-02  0.1547E-01  0.1547E-01
    -12.514  0.6017E-02  0.6017E-02  0.1589E-01  0.1589E-01
    -12.444  0.5667E-02  0.5668E-02  0.1628E-01  0.1628E-01
    -12.374  0.3917E-02  0.3918E-02  0.1655E-01  0.1655E-01
    -12.305  0.6155E-02  0.6156E-02  0.1698E-01  0.1698E-01
    -12.235  0.1017E-01  0.1017E-01  0.1769E-01  0.1769E-01
    -12.165  0.8205E-02  0.8205E-02  0.1826E-01  0.1826E-01
    -12.095  0.4792E-02  0.4791E-02  0.1860E-01  0.1860E-01
    -12.026  0.2737E-02  0.2737E-02  0.1879E-01  0.1879E-01
    -11.956  0.2132E-02  0.2131E-02  0.1894E-01  0.1894E-01
    -11.886  0.2762E-02  0.2762E-02  0.1913E-01  0.1913E-01
    -11.817  0.1978E-02  0.1978E-02  0.1927E-01  0.1927E-01
    -11.747  0.8688E-03  0.8690E-03  0.1933E-01  0.1933E-01
    -11.677  0.1320E-03  0.1321E-03  0.1934E-01  0.1934E-01
    -11.607 -0.5498E-04 -0.5498E-04  0.1933E-01  0.1933E-01
    -11.538 -0.2905E-04 -0.2907E-04  0.1933E-01  0.1933E-01
    -11.468 -0.6582E-04 -0.6586E-04  0.1933E-01  0.1933E-01
    -11.398  0.8447E-04  0.8450E-04  0.1933E-01  0.1933E-01
    -11.328  0.8521E-03  0.8529E-03  0.1939E-01  0.1939E-01
    -11.259  0.2467E-02  0.2468E-02  0.1957E-01  0.1957E-01
    -11.189  0.5211E-02  0.5212E-02  0.1993E-01  0.1993E-01
    -11.119  0.5940E-02  0.5939E-02  0.2034E-01  0.2034E-01
    -11.049  0.5345E-02  0.5344E-02  0.2072E-01  0.2072E-01
    -10.980  0.3521E-02  0.3520E-02  0.2096E-01  0.2096E-01
    -10.910  0.6686E-03  0.6682E-03  0.2101E-01  0.2101E-01
    -10.840  0.2568E-04  0.2630E-04  0.2101E-01  0.2101E-01
    -10.771  0.1206E-02  0.1207E-02  0.2109E-01  0.2109E-01
    -10.701  0.2491E-02  0.2491E-02  0.2127E-01  0.2127E-01
    -10.631  0.4500E-02  0.4500E-02  0.2158E-01  0.2158E-01
    -10.561  0.3860E-02  0.3859E-02  0.2185E-01  0.2185E-01
    -10.492  0.7641E-03  0.7630E-03  0.2190E-01  0.2190E-01
    -10.422 -0.3618E-03 -0.3618E-03  0.2188E-01  0.2188E-01
    -10.352  0.4415E-03  0.4426E-03  0.2191E-01  0.2191E-01
    -10.282  0.3177E-02  0.3178E-02  0.2213E-01  0.2213E-01
    -10.213  0.3549E-02  0.3547E-02  0.2238E-01  0.2238E-01
    -10.143  0.8863E-03  0.8856E-03  0.2244E-01  0.2244E-01
    -10.073  0.5289E-03  0.5302E-03  0.2248E-01  0.2248E-01
    -10.004  0.3490E-02  0.3491E-02  0.2272E-01  0.2272E-01
     -9.934  0.6016E-02  0.6014E-02  0.2314E-01  0.2314E-01
     -9.864  0.5624E-02  0.5623E-02  0.2353E-01  0.2353E-01
     -9.794  0.3789E-02  0.3791E-02  0.2380E-01  0.2380E-01
     -9.725  0.3472E-02  0.3470E-02  0.2404E-01  0.2404E-01
     -9.655  0.6821E-02  0.6823E-02  0.2451E-01  0.2451E-01
     -9.585  0.9217E-02  0.9223E-02  0.2516E-01  0.2516E-01
     -9.515  0.6936E-02  0.6931E-02  0.2564E-01  0.2564E-01
     -9.446  0.5186E-02  0.5183E-02  0.2600E-01  0.2600E-01
     -9.376  0.2970E-02  0.2972E-02  0.2621E-01  0.2621E-01
     -9.306  0.1920E-02  0.1924E-02  0.2634E-01  0.2634E-01
     -9.237  0.4084E-02  0.4082E-02  0.2663E-01  0.2663E-01
     -9.167  0.4697E-02  0.4693E-02  0.2695E-01  0.2695E-01
     -9.097  0.4209E-02  0.4211E-02  0.2725E-01  0.2725E-01
     -9.027  0.2459E-02  0.2461E-02  0.2742E-01  0.2742E-01
     -8.958  0.2847E-02  0.2850E-02  0.2762E-01  0.2762E-01
     -8.888  0.7764E-02  0.7765E-02  0.2816E-01  0.2816E-01
     -8.818  0.1199E-01  0.1199E-01  0.2900E-01  0.2900E-01
     -8.748  0.9916E-02  0.9910E-02  0.2969E-01  0.2969E-01
     -8.679  0.7951E-02  0.7948E-02  0.3024E-01  0.3024E-01
     -8.609  0.6897E-02  0.6902E-02  0.3072E-01  0.3072E-01
     -8.539  0.3846E-02  0.3846E-02  0.3099E-01  0.3099E-01
     -8.470  0.3369E-02  0.3366E-02  0.3123E-01  0.3122E-01
     -8.400  0.4121E-02  0.4120E-02  0.3151E-01  0.3151E-01
     -8.330  0.4340E-02  0.4338E-02  0.3182E-01  0.3181E-01
     -8.260  0.5243E-02  0.5243E-02  0.3218E-01  0.3218E-01
     -8.191  0.5972E-02  0.5972E-02  0.3260E-01  0.3260E-01
     -8.121  0.5835E-02  0.5830E-02  0.3300E-01  0.3300E-01
     -8.051  0.5982E-02  0.5984E-02  0.3342E-01  0.3342E-01
     -7.981  0.6516E-02  0.6517E-02  0.3388E-01  0.3388E-01
     -7.912  0.7501E-02  0.7492E-02  0.3440E-01  0.3440E-01
     -7.842  0.7332E-02  0.7329E-02  0.3491E-01  0.3491E-01
     -7.772  0.6018E-02  0.6016E-02  0.3533E-01  0.3533E-01
     -7.703  0.9201E-02  0.9192E-02  0.3597E-01  0.3597E-01
     -7.633  0.1139E-01  0.1139E-01  0.3677E-01  0.3676E-01
     -7.563  0.1068E-01  0.1068E-01  0.3751E-01  0.3751E-01
     -7.493  0.8434E-02  0.8429E-02  0.3810E-01  0.3810E-01
     -7.424  0.6569E-02  0.6563E-02  0.3856E-01  0.3855E-01
     -7.354  0.6310E-02  0.6315E-02  0.3900E-01  0.3899E-01
     -7.284  0.4744E-02  0.4754E-02  0.3933E-01  0.3933E-01
     -7.214  0.4033E-02  0.4038E-02  0.3961E-01  0.3961E-01
     -7.145  0.4805E-02  0.4798E-02  0.3994E-01  0.3994E-01
     -7.075  0.6686E-02  0.6675E-02  0.4041E-01  0.4041E-01
     -7.005  0.6783E-02  0.6777E-02  0.4088E-01  0.4088E-01
     -6.936  0.5186E-02  0.5205E-02  0.4124E-01  0.4124E-01
     -6.866  0.5356E-02  0.5369E-02  0.4162E-01  0.4162E-01
     -6.796  0.5517E-02  0.5504E-02  0.4200E-01  0.4200E-01
     -6.726  0.6544E-02  0.6520E-02  0.4246E-01  0.4246E-01
     -6.657  0.5823E-02  0.5852E-02  0.4286E-01  0.4286E-01
     -6.587  0.2150E-02  0.2157E-02  0.4301E-01  0.4301E-01
     -6.517  0.2840E-02  0.2807E-02  0.4321E-01  0.4321E-01
     -6.447  0.6431E-02  0.6416E-02  0.4366E-01  0.4366E-01
     -6.378  0.8355E-02  0.8367E-02  0.4424E-01  0.4424E-01
     -6.308  0.5253E-02  0.5284E-02  0.4461E-01  0.4461E-01
     -6.238  0.2758E-02  0.2753E-02  0.4480E-01  0.4480E-01
     -6.169  0.6309E-02  0.6298E-02  0.4524E-01  0.4524E-01
     -6.099  0.6128E-02  0.6148E-02  0.4567E-01  0.4567E-01
     -6.029  0.4177E-02  0.4174E-02  0.4596E-01  0.4596E-01
     -5.959  0.7409E-02  0.7385E-02  0.4648E-01  0.4647E-01
     -5.890  0.9676E-02  0.9671E-02  0.4715E-01  0.4715E-01
     -5.820  0.7507E-02  0.7531E-02  0.4768E-01  0.4767E-01
     -5.750  0.5087E-02  0.5071E-02  0.4803E-01  0.4803E-01
     -5.680  0.5193E-02  0.5146E-02  0.4839E-01  0.4839E-01
     -5.611  0.6001E-02  0.6027E-02  0.4881E-01  0.4881E-01
     -5.541  0.7520E-02  0.7527E-02  0.4933E-01  0.4933E-01
     -5.471  0.9518E-02  0.9487E-02  0.5000E-01  0.4999E-01
     -5.402  0.6987E-02  0.7016E-02  0.5049E-01  0.5048E-01
     -5.332  0.4796E-02  0.4778E-02  0.5082E-01  0.5082E-01
     -5.262  0.1124E-01  0.1117E-01  0.5160E-01  0.5159E-01
     -5.192  0.1400E-01  0.1403E-01  0.5258E-01  0.5257E-01
     -5.123  0.9240E-02  0.9288E-02  0.5322E-01  0.5322E-01
     -5.053  0.4951E-02  0.4986E-02  0.5357E-01  0.5357E-01
     -4.983  0.2430E-02  0.2434E-02  0.5374E-01  0.5374E-01
     -4.913  0.4666E-02  0.4640E-02  0.5406E-01  0.5406E-01
     -4.844  0.6965E-02  0.6944E-02  0.5455E-01  0.5454E-01
     -4.774  0.8183E-02  0.8133E-02  0.5512E-01  0.5511E-01
     -4.704  0.6972E-02  0.6985E-02  0.5561E-01  0.5560E-01
     -4.635  0.5588E-02  0.5568E-02  0.5600E-01  0.5599E-01
     -4.565  0.6022E-02  0.6016E-02  0.5642E-01  0.5641E-01
     -4.495  0.6596E-02  0.6632E-02  0.5688E-01  0.5687E-01
     -4.425  0.6737E-02  0.6768E-02  0.5735E-01  0.5734E-01
     -4.356  0.4658E-02  0.4661E-02  0.5767E-01  0.5767E-01
     -4.286  0.2773E-02  0.2767E-02  0.5786E-01  0.5786E-01
     -4.216  0.2926E-02  0.2939E-02  0.5807E-01  0.5806E-01
     -4.146  0.4909E-02  0.4869E-02  0.5841E-01  0.5840E-01
     -4.077  0.7424E-02  0.7444E-02  0.5893E-01  0.5892E-01
     -4.007  0.6857E-02  0.6909E-02  0.5941E-01  0.5940E-01
     -3.937  0.5716E-02  0.5712E-02  0.5980E-01  0.5980E-01
     -3.867  0.4058E-02  0.4036E-02  0.6009E-01  0.6008E-01
     -3.798  0.2058E-02  0.1993E-02  0.6023E-01  0.6022E-01
     -3.728  0.2444E-02  0.2477E-02  0.6040E-01  0.6040E-01
     -3.658  0.3600E-02  0.3616E-02  0.6065E-01  0.6065E-01
     -3.589  0.7242E-02  0.7076E-02  0.6116E-01  0.6114E-01
     -3.519  0.9153E-02  0.8979E-02  0.6180E-01  0.6177E-01
     -3.449  0.6399E-02  0.6588E-02  0.6224E-01  0.6223E-01
     -3.379  0.3798E-02  0.3995E-02  0.6251E-01  0.6251E-01
     -3.310  0.3136E-02  0.3061E-02  0.6273E-01  0.6272E-01
     -3.240  0.5198E-02  0.5025E-02  0.6309E-01  0.6307E-01
     -3.170  0.5476E-02  0.5580E-02  0.6347E-01  0.6346E-01
     -3.100  0.4013E-02  0.3880E-02  0.6375E-01  0.6373E-01
     -3.031  0.5467E-02  0.5389E-02  0.6413E-01  0.6410E-01
     -2.961  0.3327E-02  0.3595E-02  0.6436E-01  0.6436E-01
     -2.891  0.3862E-02  0.3877E-02  0.6463E-01  0.6463E-01
     -2.822  0.4202E-02  0.4249E-02  0.6493E-01  0.6492E-01
     -2.752  0.1592E-02  0.1587E-02  0.6504E-01  0.6503E-01
     -2.682  0.5444E-02  0.5328E-02  0.6542E-01  0.6540E-01
     -2.612  0.8120E-02  0.8178E-02  0.6598E-01  0.6597E-01
     -2.543  0.4822E-02  0.4883E-02  0.6632E-01  0.6631E-01
     -2.473  0.4118E-02  0.4100E-02  0.6661E-01  0.6660E-01
     -2.403  0.4255E-02  0.4228E-02  0.6690E-01  0.6690E-01
     -2.333  0.5368E-02  0.5310E-02  0.6728E-01  0.6727E-01
     -2.264  0.7244E-02  0.7272E-02  0.6778E-01  0.6777E-01
     -2.194  0.4424E-02  0.4514E-02  0.6809E-01  0.6809E-01
     -2.124  0.1065E-02  0.1093E-02  0.6816E-01  0.6816E-01
     -2.055  0.1210E-02  0.1198E-02  0.6825E-01  0.6825E-01
     -1.985  0.4045E-02  0.4018E-02  0.6853E-01  0.6853E-01
     -1.915  0.5520E-02  0.5510E-02  0.6892E-01  0.6891E-01
     -1.845  0.4042E-02  0.4018E-02  0.6920E-01  0.6919E-01
     -1.776  0.2962E-02  0.2996E-02  0.6940E-01  0.6940E-01
     -1.706  0.1603E-02  0.1628E-02  0.6952E-01  0.6951E-01
     -1.636  0.2082E-02  0.2070E-02  0.6966E-01  0.6966E-01
     -1.566  0.1525E-02  0.1544E-02  0.6977E-01  0.6977E-01
     -1.497  0.1966E-03  0.2147E-03  0.6978E-01  0.6978E-01
     -1.427 -0.1832E-03 -0.1838E-03  0.6977E-01  0.6977E-01
     -1.357  0.5841E-03  0.5687E-03  0.6981E-01  0.6981E-01
     -1.288  0.2473E-02  0.2451E-02  0.6998E-01  0.6998E-01
     -1.218  0.4800E-02  0.4780E-02  0.7032E-01  0.7031E-01
     -1.148  0.5309E-02  0.5329E-02  0.7069E-01  0.7068E-01
     -1.078  0.2679E-02  0.2704E-02  0.7087E-01  0.7087E-01
     -1.009  0.1471E-02  0.1477E-02  0.7098E-01  0.7098E-01
     -0.939  0.3175E-03  0.3252E-03  0.7100E-01  0.7100E-01
     -0.869 -0.3450E-03 -0.3476E-03  0.7097E-01  0.7097E-01
     -0.799  0.2130E-02  0.2101E-02  0.7112E-01  0.7112E-01
     -0.730  0.6649E-02  0.6634E-02  0.7159E-01  0.7158E-01
     -0.660  0.4993E-02  0.5020E-02  0.7193E-01  0.7193E-01
     -0.590  0.2585E-02  0.2590E-02  0.7211E-01  0.7211E-01
     -0.521  0.4828E-02  0.4824E-02  0.7245E-01  0.7245E-01
     -0.451  0.4638E-02  0.4640E-02  0.7277E-01  0.7277E-01
     -0.381  0.5586E-02  0.5571E-02  0.7316E-01  0.7316E-01
     -0.311  0.6313E-02  0.6316E-02  0.7360E-01  0.7360E-01
     -0.242  0.2871E-02  0.2890E-02  0.7380E-01  0.7380E-01
     -0.172  0.9883E-03  0.9921E-03  0.7387E-01  0.7387E-01
     -0.102  0.1611E-02  0.1607E-02  0.7399E-01  0.7398E-01
     -0.032  0.1466E-02  0.1470E-02  0.7409E-01  0.7409E-01
      0.037  0.3593E-03  0.3635E-03  0.7411E-01  0.7411E-01
      0.107  0.1209E-02  0.1206E-02  0.7420E-01  0.7420E-01
      0.177  0.3954E-02  0.3942E-02  0.7447E-01  0.7447E-01
      0.246  0.8297E-02  0.8287E-02  0.7505E-01  0.7505E-01
      0.316  0.9508E-02  0.9507E-02  0.7571E-01  0.7571E-01
      0.386  0.6983E-02  0.6980E-02  0.7620E-01  0.7620E-01
      0.456  0.4171E-02  0.4187E-02  0.7649E-01  0.7649E-01
      0.525  0.2131E-02  0.2136E-02  0.7664E-01  0.7664E-01
      0.595  0.5651E-02  0.5648E-02  0.7703E-01  0.7703E-01
      0.665  0.6294E-02  0.6299E-02  0.7747E-01  0.7747E-01
      0.735  0.4101E-02  0.4068E-02  0.7776E-01  0.7776E-01
      0.804  0.6025E-02  0.5960E-02  0.7818E-01  0.7817E-01
      0.874  0.7856E-02  0.7814E-02  0.7873E-01  0.7872E-01
      0.944  0.6315E-02  0.6136E-02  0.7917E-01  0.7914E-01
      1.013  0.5944E-02  0.5915E-02  0.7958E-01  0.7956E-01
      1.083  0.8905E-02  0.9005E-02  0.8020E-01  0.8019E-01
      1.153  0.9259E-02  0.9017E-02  0.8085E-01  0.8081E-01
      1.223  0.6814E-02  0.6894E-02  0.8132E-01  0.8129E-01
      1.292  0.5696E-02  0.5908E-02  0.8172E-01  0.8171E-01
      1.362  0.9035E-02  0.9002E-02  0.8235E-01  0.8233E-01
      1.432  0.1128E-01  0.1089E-01  0.8314E-01  0.8309E-01
      1.502  0.1157E-01  0.1158E-01  0.8394E-01  0.8390E-01
      1.571  0.8956E-02  0.9490E-02  0.8457E-01  0.8456E-01
      1.641  0.4783E-02  0.4949E-02  0.8490E-01  0.8491E-01
      1.711  0.1635E-02  0.1569E-02  0.8502E-01  0.8502E-01
      1.780 -0.8953E-04 -0.1103E-03  0.8501E-01  0.8501E-01
      1.850 -0.1303E-03 -0.1284E-03  0.8500E-01  0.8500E-01
      1.920 -0.1493E-04 -0.1434E-04  0.8500E-01  0.8500E-01
      1.990 -0.5063E-06 -0.4779E-06  0.8500E-01  0.8500E-01
      2.059 -0.5864E-08 -0.5449E-08  0.8500E-01  0.8500E-01
      2.129 -0.2431E-10 -0.2225E-10  0.8500E-01  0.8500E-01
      2.199 -0.3681E-13 -0.3321E-13  0.8500E-01  0.8500E-01
      2.269 -0.2052E-16 -0.1840E-16  0.8500E-01  0.8500E-01
      2.338  0.0000E+00  0.0000E+00  0.8500E-01  0.8500E-01
      2.408  0.0000E+00  0.0000E+00  0.8500E-01  0.8500E-01
      2.478  0.0000E+00  0.0000E+00  0.8500E-01  0.8500E-01
      2.547  0.0000E+00  0.0000E+00  0.8500E-01  0.8500E-01
      2.617  0.0000E+00  0.0000E+00  0.8500E-01  0.8500E-01
