   41   41 1000    2
  0.4371278E+02  0.1016000E-08  0.1176000E-08  0.1500000E-08  0.5000000E-15
  1.000000000000000E-004
  CAR 
 Beta12Borophene !The name of the system 
  128    6   85
 
  0.0000000E+00  0.0000000E+00  0.2500000E+00  0.1111111E+00
   1      -17.301188    -17.301226
   2      -17.084721    -17.084759
   3      -16.557206    -16.557233
   4      -16.542927    -16.542926
   5      -16.368348    -16.368381
   6      -16.339859    -16.339860
   7      -14.660951    -14.660987
   8      -14.473869    -14.473914
   9      -14.362336    -14.362408
  10      -14.197879    -14.197863
  11      -14.052626    -14.052629
  12      -13.573590    -13.573584
  13      -13.568431    -13.568413
  14      -13.133810    -13.133834
  15      -12.599912    -12.599866
  16      -12.483441    -12.483414
  17      -12.388401    -12.388391
  18      -11.801994    -11.801977
  19      -11.339990    -11.340000
  20      -11.281103    -11.281175
  21      -11.133072    -11.133122
  22      -11.054815    -11.054832
  23      -10.996838    -10.996851
  24      -10.220012    -10.220007
  25      -10.039314    -10.039302
  26      -10.031343    -10.031472
  27       -8.735460     -8.735184
  28       -8.598094     -8.597994
  29       -8.533510     -8.533568
  30       -8.383741     -8.383584
  31       -8.313864     -8.313619
  32       -8.221936     -8.222017
  33       -8.209967     -8.209885
  34       -8.184385     -8.184542
  35       -7.987088     -7.987044
  36       -7.742398     -7.742263
  37       -7.504298     -7.504169
  38       -7.307398     -7.307084
  39       -7.259152     -7.258973
  40       -7.180064     -7.179985
  41       -7.172632     -7.171549
  42       -7.118019     -7.117625
  43       -6.803465     -6.803433
  44       -6.696142     -6.695911
  45       -6.646062     -6.645994
  46       -6.400813     -6.400745
  47       -5.973392     -5.973273
  48       -5.920924     -5.920886
  49       -5.892520     -5.891424
  50       -5.544970     -5.543655
  51       -5.497182     -5.497163
  52       -5.409473     -5.408260
  53       -5.281810     -5.280659
  54       -4.840543     -4.840224
  55       -4.641598     -4.639529
  56       -4.638565     -4.638535
  57       -4.498236     -4.495142
  58       -4.464803     -4.464633
  59       -4.031232     -4.030465
  60       -3.727029     -3.725088
  61       -3.725063     -3.724157
  62       -3.509942     -3.508194
  63       -3.292991     -3.292622
  64       -3.234569     -3.226314
  65       -3.099823     -3.099475
  66       -2.602997     -2.601793
  67       -2.434007     -2.432732
  68       -2.116412     -2.115128
  69       -2.037778     -2.037184
  70       -1.611513     -1.609908
  71       -1.332189     -1.331469
  72       -0.752827     -0.752483
  73       -0.376290     -0.375703
  74       -0.326905     -0.326801
  75       -0.197679     -0.197453
  76        0.559846      0.560236
  77        0.576599      0.577096
  78        0.687658      0.687629
  79        0.804533      0.808571
  80        0.808456      0.811065
  81        1.047146      1.050994
  82        1.083831      1.083958
  83        1.334713      1.334762
  84        1.349798      1.349919
  85        1.425390      1.425488
 
  0.3333333E+00  0.0000000E+00  0.2500000E+00  0.1111111E+00
   1      -17.253077    -17.253114
   2      -17.145423    -17.145461
   3      -16.515764    -16.515790
   4      -16.497510    -16.497510
   5      -16.419304    -16.419336
   6      -16.396668    -16.396669
   7      -14.620523    -14.620558
   8      -14.524058    -14.524103
   9      -14.184540    -14.184594
  10      -14.118810    -14.118820
  11      -14.083160    -14.083159
  12      -13.549360    -13.549388
  13      -13.375291    -13.375278
  14      -13.350037    -13.350017
  15      -12.906831    -12.906810
  16      -12.840245    -12.840222
  17      -12.252282    -12.252271
  18      -11.966261    -11.966246
  19      -11.198349    -11.198391
  20      -11.176591    -11.176588
  21      -11.087993    -11.088034
  22      -11.049936    -11.049945
  23      -10.599332    -10.599369
  24       -9.918978     -9.918936
  25       -9.671216     -9.671192
  26       -9.600227     -9.600347
  27       -9.441243     -9.441244
  28       -9.204699     -9.204626
  29       -8.735952     -8.736081
  30       -8.677639     -8.677650
  31       -8.502154     -8.502073
  32       -8.381465     -8.381470
  33       -8.154837     -8.154684
  34       -8.021452     -8.021530
  35       -7.937881     -7.937624
  36       -7.682743     -7.682603
  37       -7.545943     -7.545866
  38       -7.450318     -7.449460
  39       -7.326527     -7.325708
  40       -7.117825     -7.117664
  41       -7.089381     -7.089051
  42       -6.887477     -6.887207
  43       -6.875728     -6.875574
  44       -6.808870     -6.808831
  45       -6.704935     -6.704846
  46       -6.118466     -6.118372
  47       -5.975603     -5.975217
  48       -5.679703     -5.678498
  49       -5.674957     -5.674534
  50       -5.423133     -5.422838
  51       -5.297526     -5.296173
  52       -5.252710     -5.252096
  53       -5.222674     -5.221708
  54       -4.766886     -4.766349
  55       -4.746382     -4.743115
  56       -4.439825     -4.438670
  57       -4.421170     -4.421012
  58       -4.207639     -4.207515
  59       -4.097736     -4.096604
  60       -3.958302     -3.958151
  61       -3.631780     -3.630711
  62       -3.576921     -3.576385
  63       -3.535745     -3.534400
  64       -3.242258     -3.240687
  65       -3.206902     -3.205750
  66       -3.057294     -3.050169
  67       -2.887805     -2.886008
  68       -2.652872     -2.651877
  69       -2.342209     -2.339453
  70       -1.675776     -1.674837
  71       -0.690942     -0.690491
  72       -0.537423     -0.537257
  73       -0.092939     -0.092646
  74        0.176982      0.177024
  75        0.298140      0.298618
  76        0.385639      0.385987
  77        0.392717      0.393234
  78        0.918981      0.919687
  79        0.944698      0.949534
  80        1.061982      1.062974
  81        1.099282      1.099354
  82        1.212172      1.215271
  83        1.215166      1.215275
  84        1.487462      1.496220
  85        1.513166      1.513102
 
 -0.3333333E+00  0.0000000E+00  0.2500000E+00  0.1111111E+00
   1      -17.253077    -17.253114
   2      -17.145423    -17.145461
   3      -16.515764    -16.515790
   4      -16.497510    -16.497510
   5      -16.419304    -16.419336
   6      -16.396668    -16.396669
   7      -14.620523    -14.620558
   8      -14.524058    -14.524103
   9      -14.184540    -14.184594
  10      -14.118810    -14.118820
  11      -14.083160    -14.083159
  12      -13.549360    -13.549388
  13      -13.375291    -13.375278
  14      -13.350037    -13.350017
  15      -12.906831    -12.906810
  16      -12.840245    -12.840222
  17      -12.252282    -12.252271
  18      -11.966261    -11.966246
  19      -11.198349    -11.198391
  20      -11.176591    -11.176588
  21      -11.087993    -11.088034
  22      -11.049936    -11.049945
  23      -10.599332    -10.599369
  24       -9.918978     -9.918936
  25       -9.671216     -9.671192
  26       -9.600227     -9.600347
  27       -9.441243     -9.441244
  28       -9.204699     -9.204626
  29       -8.735952     -8.736081
  30       -8.677639     -8.677650
  31       -8.502154     -8.502073
  32       -8.381465     -8.381470
  33       -8.154837     -8.154684
  34       -8.021452     -8.021530
  35       -7.937881     -7.937624
  36       -7.682743     -7.682603
  37       -7.545943     -7.545866
  38       -7.450318     -7.449460
  39       -7.326527     -7.325708
  40       -7.117825     -7.117664
  41       -7.089381     -7.089051
  42       -6.887477     -6.887207
  43       -6.875728     -6.875574
  44       -6.808870     -6.808831
  45       -6.704935     -6.704846
  46       -6.118466     -6.118372
  47       -5.975603     -5.975217
  48       -5.679703     -5.678498
  49       -5.674957     -5.674534
  50       -5.423133     -5.422838
  51       -5.297526     -5.296173
  52       -5.252710     -5.252096
  53       -5.222674     -5.221708
  54       -4.766886     -4.766349
  55       -4.746382     -4.743115
  56       -4.439825     -4.438670
  57       -4.421170     -4.421012
  58       -4.207639     -4.207514
  59       -4.097736     -4.096604
  60       -3.958302     -3.958151
  61       -3.631780     -3.630711
  62       -3.576921     -3.576385
  63       -3.535745     -3.534400
  64       -3.242258     -3.240687
  65       -3.206902     -3.205750
  66       -3.057294     -3.050169
  67       -2.887805     -2.886008
  68       -2.652872     -2.651877
  69       -2.342209     -2.339453
  70       -1.675776     -1.674837
  71       -0.690942     -0.690491
  72       -0.537423     -0.537258
  73       -0.092940     -0.092647
  74        0.176979      0.177021
  75        0.298143      0.298620
  76        0.385638      0.385986
  77        0.392717      0.393234
  78        0.919001      0.919702
  79        0.944686      0.949524
  80        1.061993      1.062983
  81        1.099282      1.099354
  82        1.212183      1.215274
  83        1.215165      1.215285
  84        1.487690      1.496387
  85        1.513166      1.513102
 
  0.0000000E+00  0.3333333E+00  0.2500000E+00  0.2222222E+00
   1      -17.239094    -17.239142
   2      -17.020511    -17.020557
   3      -16.924136    -16.924135
   4      -16.726442    -16.726447
   5      -16.006673    -16.006691
   6      -15.817871    -15.817893
   7      -15.309579    -15.309602
   8      -15.126211    -15.126237
   9      -14.322448    -14.322514
  10      -13.871817    -13.871784
  11      -13.424097    -13.424111
  12      -13.265984    -13.266010
  13      -13.132983    -13.132981
  14      -13.112410    -13.112436
  15      -12.745628    -12.745576
  16      -12.630397    -12.630384
  17      -12.341725    -12.341757
  18      -12.278017    -12.277992
  19      -12.181374    -12.181389
  20      -11.896640    -11.896625
  21      -11.214940    -11.215005
  22      -10.771354    -10.771406
  23       -9.882553     -9.882544
  24       -9.841516     -9.841478
  25       -9.768607     -9.768649
  26       -9.583021     -9.583099
  27       -9.023696     -9.023722
  28       -8.918654     -8.918696
  29       -8.849908     -8.849850
  30       -8.801271     -8.801322
  31       -8.698103     -8.697794
  32       -8.440426     -8.440309
  33       -8.136856     -8.136671
  34       -7.950196     -7.950201
  35       -7.726444     -7.726306
  36       -7.648472     -7.648316
  37       -7.575561     -7.575567
  38       -7.563816     -7.563279
  39       -7.445342     -7.445015
  40       -7.231822     -7.231645
  41       -7.055662     -7.055620
  42       -6.924372     -6.924164
  43       -6.453593     -6.453183
  44       -6.415586     -6.415147
  45       -6.411129     -6.410352
  46       -6.221122     -6.220684
  47       -6.171636     -6.171432
  48       -5.899883     -5.899707
  49       -5.839036     -5.838876
  50       -5.663879     -5.662308
  51       -5.528879     -5.528854
  52       -5.497414     -5.496883
  53       -5.291709     -5.291161
  54       -5.076101     -5.075400
  55       -4.935477     -4.934618
  56       -4.782304     -4.781626
  57       -4.693311     -4.692942
  58       -4.358735     -4.357032
  59       -4.274192     -4.271762
  60       -3.793082     -3.788881
  61       -3.619869     -3.619371
  62       -3.595729     -3.592860
  63       -3.236995     -3.232632
  64       -2.686850     -2.684907
  65       -2.622652     -2.621936
  66       -2.419580     -2.418216
  67       -2.318871     -2.317736
  68       -2.236709     -2.235406
  69       -1.961600     -1.960894
  70       -1.292378     -1.291678
  71       -1.201728     -1.200807
  72       -1.056463     -1.056013
  73       -0.767202     -0.766700
  74       -0.441725     -0.441550
  75       -0.314981     -0.314368
  76        0.109209      0.109268
  77        0.248528      0.248430
  78        0.404548      0.404670
  79        0.611069      0.611112
  80        0.699650      0.700057
  81        0.990580      1.000666
  82        1.302839      1.310838
  83        1.351088      1.351366
  84        1.397916      1.398754
  85        1.536571      1.536321
 
  0.3333333E+00  0.3333333E+00  0.2500000E+00  0.2222222E+00
   1      -17.190566    -17.190614
   2      -17.081878    -17.081926
   3      -16.879962    -16.879961
   4      -16.781297    -16.781300
   5      -15.964496    -15.964514
   6      -15.869731    -15.869752
   7      -15.268498    -15.268520
   8      -15.176367    -15.176393
   9      -14.092160    -14.092230
  10      -13.654094    -13.654059
  11      -13.519886    -13.519929
  12      -13.387527    -13.387543
  13      -13.305651    -13.305661
  14      -13.119383    -13.119346
  15      -12.952518    -12.952514
  16      -12.551794    -12.551776
  17      -12.464408    -12.464400
  18      -12.287743    -12.287763
  19      -12.221499    -12.221519
  20      -12.101462    -12.101454
  21      -10.651472    -10.651497
  22      -10.285640    -10.285679
  23       -9.975410     -9.975414
  24       -9.677408     -9.677348
  25       -9.593752     -9.593775
  26       -9.474200     -9.474165
  27       -9.277120     -9.277200
  28       -9.133378     -9.133338
  29       -8.910950     -8.911030
  30       -8.846379     -8.846366
  31       -8.814737     -8.814766
  32       -8.643151     -8.643170
  33       -8.272815     -8.272712
  34       -8.059780     -8.059635
  35       -7.893458     -7.893352
  36       -7.838008     -7.837754
  37       -7.729069     -7.728842
  38       -7.669281     -7.669074
  39       -7.576533     -7.576359
  40       -7.393805     -7.393632
  41       -7.011337     -7.010621
  42       -6.730604     -6.729805
  43       -6.515238     -6.514524
  44       -6.359048     -6.358677
  45       -6.173817     -6.173429
  46       -6.011078     -6.010876
  47       -5.909654     -5.909273
  48       -5.781551     -5.781308
  49       -5.573471     -5.573320
  50       -5.461818     -5.460812
  51       -5.278751     -5.278568
  52       -5.229029     -5.228087
  53       -5.180601     -5.180215
  54       -5.113632     -5.112835
  55       -4.922515     -4.921903
  56       -4.826592     -4.825929
  57       -4.604267     -4.602086
  58       -4.516533     -4.515817
  59       -4.134945     -4.133406
  60       -4.055507     -4.055446
  61       -3.929155     -3.928440
  62       -3.509526     -3.503459
  63       -3.394551     -3.393584
  64       -3.058527     -3.053966
  65       -2.881394     -2.879906
  66       -2.681502     -2.679838
  67       -2.505679     -2.504597
  68       -2.283851     -2.282672
  69       -1.965018     -1.964361
  70       -1.833318     -1.831719
  71       -1.192549     -1.192018
  72       -0.750124     -0.749720
  73       -0.547310     -0.547036
  74       -0.376197     -0.375989
  75        0.227128      0.227514
  76        0.284807      0.284805
  77        0.588728      0.588737
  78        0.795052      0.795127
  79        0.861728      0.862591
  80        1.070352      1.070575
  81        1.164074      1.173082
  82        1.350317      1.350240
  83        1.439900      1.447564
  84        1.496209      1.499351
  85        1.617186      1.616168
 
 -0.3333333E+00  0.3333333E+00  0.2500000E+00  0.2222222E+00
   1      -17.190566    -17.190614
   2      -17.081878    -17.081926
   3      -16.879962    -16.879961
   4      -16.781297    -16.781300
   5      -15.964496    -15.964514
   6      -15.869731    -15.869752
   7      -15.268498    -15.268520
   8      -15.176367    -15.176393
   9      -14.092160    -14.092230
  10      -13.654094    -13.654059
  11      -13.519886    -13.519929
  12      -13.387527    -13.387543
  13      -13.305651    -13.305661
  14      -13.119383    -13.119346
  15      -12.952518    -12.952514
  16      -12.551794    -12.551776
  17      -12.464408    -12.464400
  18      -12.287743    -12.287763
  19      -12.221499    -12.221519
  20      -12.101462    -12.101454
  21      -10.651472    -10.651497
  22      -10.285640    -10.285679
  23       -9.975410     -9.975414
  24       -9.677408     -9.677348
  25       -9.593752     -9.593775
  26       -9.474200     -9.474165
  27       -9.277120     -9.277200
  28       -9.133378     -9.133338
  29       -8.910950     -8.911030
  30       -8.846379     -8.846366
  31       -8.814737     -8.814766
  32       -8.643151     -8.643170
  33       -8.272815     -8.272712
  34       -8.059780     -8.059635
  35       -7.893458     -7.893352
  36       -7.838008     -7.837754
  37       -7.729069     -7.728842
  38       -7.669281     -7.669074
  39       -7.576533     -7.576359
  40       -7.393805     -7.393632
  41       -7.011337     -7.010621
  42       -6.730604     -6.729805
  43       -6.515238     -6.514524
  44       -6.359048     -6.358677
  45       -6.173817     -6.173429
  46       -6.011078     -6.010876
  47       -5.909654     -5.909273
  48       -5.781551     -5.781308
  49       -5.573471     -5.573320
  50       -5.461818     -5.460812
  51       -5.278751     -5.278568
  52       -5.229029     -5.228087
  53       -5.180601     -5.180215
  54       -5.113632     -5.112835
  55       -4.922515     -4.921903
  56       -4.826592     -4.825929
  57       -4.604267     -4.602086
  58       -4.516533     -4.515817
  59       -4.134945     -4.133406
  60       -4.055507     -4.055446
  61       -3.929155     -3.928440
  62       -3.509526     -3.503459
  63       -3.394551     -3.393584
  64       -3.058527     -3.053966
  65       -2.881394     -2.879906
  66       -2.681501     -2.679838
  67       -2.505679     -2.504597
  68       -2.283851     -2.282672
  69       -1.965018     -1.964361
  70       -1.833318     -1.831719
  71       -1.192549     -1.192018
  72       -0.750124     -0.749720
  73       -0.547310     -0.547036
  74       -0.376198     -0.375990
  75        0.227125      0.227512
  76        0.284808      0.284805
  77        0.588727      0.588736
  78        0.795054      0.795129
  79        0.861737      0.862598
  80        1.070348      1.070572
  81        1.164080      1.173087
  82        1.350317      1.350239
  83        1.439923      1.447581
  84        1.496282      1.499407
  85        1.617221      1.616184
