<?xml version="1.0" encoding="ISO-8859-1"?>
<modeling>
 <generator>
  <i name="program" type="string">vasp </i>
  <i name="version" type="string">5.3.3  </i>
  <i name="subversion" type="string">18Dez12 (build Aug 26 2015 16:06:49) complex                          parallel </i>
  <i name="platform" type="string">LinuxIFC </i>
  <i name="date" type="string">2020 04 21 </i>
  <i name="time" type="string">16:34:46 </i>
 </generator>
 <incar>
  <i type="string" name="SYSTEM"> Beta12Borophene !The name of the system</i>
  <i type="string" name="PREC">normal   !normal or accurate</i>
  <i type="string" name="ALGO"> Normal   !def=Normal. Sets IALGO and LD</i>
  <i type="int" name="ISPIN">     2</i>
  <i type="int" name="NELM">    60</i>
  <i type="int" name="IBRION">     2</i>
  <i name="EDIFFG">     -0.01000000</i>
  <i type="int" name="NSW">  1000</i>
  <i type="int" name="ISIF">     2</i>
  <i name="ENCUT">    500.00000000</i>
  <i name="POTIM">      0.50000000</i>
  <v name="MAGMOM">      0.00000000      0.00000000      0.00000000      0.00000000      0.00000000      0.00000000      0.00000000      0.00000000      0.00000000      0.00000000      0.00000000      0.00000000      0.00000000      0.00000000      0.00000000      0.00000000      0.00000000      0.00000000      0.00000000      0.00000000
      0.00000000      0.00000000      0.00000000      0.00000000      0.00000000      0.00000000      0.00000000      0.00000000      0.00000000      0.00000000      0.00000000      0.00000000      0.00000000      0.00000000      0.00000000      0.00000000      0.00000000      0.00000000      0.00000000      0.00000000
      0.00000000      0.00000000      0.00000000      0.00000000      0.00000000      0.00000000</v>
  <i type="string" name="LREAL"> Auto   !values=.FALSE. or Auto  (def=.F</i>
  <i type="int" name="ISMEAR">     1</i>
  <i name="SIGMA">      0.10000000</i>
  <i type="logical" name="LWAVE"> F  </i>
  <i type="logical" name="LCHARG"> F  </i>
  <i type="logical" name="LVTOT"> F  </i>
  <i type="logical" name="LELF"> F  </i>
  <i type="int" name="NELM">    60</i>
  <i type="string" name="GGA"> PE   !GGA flavor: PE=PBE, RP=RPBE, RE=r</i>
  <i type="logical" name="LDIPOL"> T  </i>
  <i type="int" name="IDIPOL">     3</i>
 </incar>
 <kpoints>
  <generation param="Monkhorst-Pack">
   <v type="int" name="divisions">       3        3        2 </v>
   <v name="usershift">      0.00000000       0.00000000       0.00000000 </v>
   <v name="genvec1">      0.33333333       0.00000000       0.00000000 </v>
   <v name="genvec2">      0.00000000       0.33333333       0.00000000 </v>
   <v name="genvec3">      0.00000000       0.00000000       0.50000000 </v>
   <v name="shift">      0.00000000       0.00000000       0.50000000 </v>
  </generation>
  <varray name="kpointlist" >
   <v>       0.00000000       0.00000000       0.25000000 </v>
   <v>       0.33333333       0.00000000       0.25000000 </v>
   <v>      -0.33333333       0.00000000       0.25000000 </v>
   <v>       0.00000000       0.33333333       0.25000000 </v>
   <v>       0.33333333       0.33333333       0.25000000 </v>
   <v>      -0.33333333       0.33333333       0.25000000 </v>
  </varray>
  <varray name="weights" >
   <v>       0.11111111 </v>
   <v>       0.11111111 </v>
   <v>       0.11111111 </v>
   <v>       0.22222222 </v>
   <v>       0.22222222 </v>
   <v>       0.22222222 </v>
  </varray>
 </kpoints>
 <parameters>
  <separator name="general" >
   <i type="string" name="SYSTEM">Beta12Borophene !The name of the system</i>
   <i type="logical" name="LCOMPAT"> F  </i>
  </separator>
  <separator name="electronic" >
   <i type="string" name="PREC">normal</i>
   <i name="ENMAX">    500.00000000</i>
   <i name="ENAUG">    535.51400000</i>
   <i name="EDIFF">      0.00010000</i>
   <i type="int" name="IALGO">    38</i>
   <i type="int" name="IWAVPR">    11</i>
   <i type="int" name="NBANDS">    85</i>
   <i name="NELECT">    128.00000000</i>
   <i type="int" name="TURBO">     0</i>
   <i type="int" name="IRESTART">     0</i>
   <i type="int" name="NREBOOT">     0</i>
   <i type="int" name="NMIN">     0</i>
   <i name="EREF">      0.00000000</i>
   <separator name="electronic smearing" >
    <i type="int" name="ISMEAR">     1</i>
    <i name="SIGMA">      0.10000000</i>
    <i name="KSPACING">      0.50000000</i>
    <i type="logical" name="KGAMMA"> T  </i>
   </separator>
   <separator name="electronic projectors" >
    <i type="logical" name="LREAL"> T  </i>
    <v name="ROPT">     -0.00050000     -0.00050000</v>
    <i type="int" name="LMAXPAW">  -100</i>
    <i type="int" name="LMAXMIX">     2</i>
    <i type="logical" name="NLSPLINE"> F  </i>
   </separator>
   <separator name="electronic startup" >
    <i type="int" name="ISTART">     0</i>
    <i type="int" name="ICHARG">     2</i>
    <i type="int" name="INIWAV">     1</i>
   </separator>
   <separator name="electronic spin" >
    <i type="int" name="ISPIN">     2</i>
    <i type="logical" name="LNONCOLLINEAR"> F  </i>
    <v name="MAGMOM">      0.00000000      0.00000000      0.00000000      0.00000000      0.00000000      0.00000000      0.00000000      0.00000000      0.00000000      0.00000000      0.00000000      0.00000000      0.00000000      0.00000000      0.00000000      0.00000000      0.00000000      0.00000000      0.00000000      0.00000000
      0.00000000      0.00000000      0.00000000      0.00000000      0.00000000      0.00000000      0.00000000      0.00000000      0.00000000      0.00000000      0.00000000      0.00000000      0.00000000      0.00000000      0.00000000      0.00000000      0.00000000      0.00000000      0.00000000      0.00000000
      0.00000000</v>
    <i name="NUPDOWN">     -1.00000000</i>
    <i type="logical" name="LSORBIT"> F  </i>
    <v name="SAXIS">      0.00000000      0.00000000      1.00000000</v>
    <i type="logical" name="LSPIRAL"> F  </i>
    <v name="QSPIRAL">      0.00000000      0.00000000      0.00000000</v>
    <i type="logical" name="LZEROZ"> F  </i>
   </separator>
   <separator name="electronic exchange-correlation" >
    <i type="logical" name="LASPH"> F  </i>
    <i type="logical" name="LMETAGGA"> F  </i>
   </separator>
   <separator name="electronic convergence" >
    <i type="int" name="NELM">    60</i>
    <i type="int" name="NELMDL">    -5</i>
    <i type="int" name="NELMIN">     2</i>
    <i name="ENINI">    500.00000000</i>
    <separator name="electronic convergence detail" >
     <i type="logical" name="LDIAG"> T  </i>
     <i type="logical" name="LSUBROT"> T  </i>
     <i name="WEIMIN">      0.00100000</i>
     <i name="EBREAK">      0.00000029</i>
     <i name="DEPER">      0.30000000</i>
     <i type="int" name="NRMM">     4</i>
     <i name="TIME">      0.40000000</i>
    </separator>
   </separator>
   <separator name="electronic mixer" >
    <i name="AMIX">      0.40000000</i>
    <i name="BMIX">      1.00000000</i>
    <i name="AMIN">      0.10000000</i>
    <i name="AMIX_MAG">      1.60000000</i>
    <i name="BMIX_MAG">      1.00000000</i>
    <separator name="electronic mixer details" >
     <i type="int" name="IMIX">     4</i>
     <i type="int" name="MAXMIX">   -45</i>
     <i name="WC">    100.00000000</i>
     <i type="int" name="INIMIX">     1</i>
     <i type="int" name="MIXPRE">     1</i>
     <i type="int" name="MREMOVE">     5</i>
    </separator>
   </separator>
   <separator name="electronic dipolcorrection" >
    <i type="logical" name="LDIPOL"> T  </i>
    <i type="logical" name="LMONO"> F  </i>
    <i type="int" name="IDIPOL">     3</i>
    <i name="EPSILON">      1.00000000</i>
    <v name="DIPOL">   -100.00000000   -100.00000000   -100.00000000</v>
    <i name="EFIELD">      0.00000000</i>
   </separator>
  </separator>
  <separator name="grids" >
   <i type="int" name="NGX">    56</i>
   <i type="int" name="NGY">    64</i>
   <i type="int" name="NGZ">    84</i>
   <i type="int" name="NGXF">   112</i>
   <i type="int" name="NGYF">   128</i>
   <i type="int" name="NGZF">   168</i>
   <i type="logical" name="ADDGRID"> F  </i>
  </separator>
  <separator name="ionic" >
   <i type="int" name="NSW">  1000</i>
   <i type="int" name="IBRION">     2</i>
   <i type="int" name="ISIF">     2</i>
   <i name="PSTRESS">      0.00000000</i>
   <i name="EDIFFG">     -0.01000000</i>
   <i type="int" name="NFREE">     1</i>
   <i name="POTIM">      0.50000000</i>
   <i name="SMASS">     -3.00000000</i>
   <i name="SCALEE">      1.00000000</i>
  </separator>
  <separator name="ionic md" >
   <i name="TEBEG">      0.00010000</i>
   <i name="TEEND">      0.00010000</i>
   <i type="int" name="NBLOCK">     1</i>
   <i type="int" name="KBLOCK">  1000</i>
   <i type="int" name="NPACO">   256</i>
   <i name="APACO">     16.00000000</i>
  </separator>
  <separator name="symmetry" >
   <i type="int" name="ISYM">     2</i>
   <i name="SYMPREC">      0.00001000</i>
  </separator>
  <separator name="dos" >
   <i type="logical" name="LORBIT"> F  </i>
   <v name="RWIGS">     -1.00000000     -1.00000000</v>
   <i type="int" name="NEDOS">   301</i>
   <i name="EMIN">     10.00000000</i>
   <i name="EMAX">    -10.00000000</i>
   <i name="EFERMI">      0.00000000</i>
  </separator>
  <separator name="writing" >
   <i type="int" name="NWRITE">     2</i>
   <i type="logical" name="LWAVE"> F  </i>
   <i type="logical" name="LCHARG"> F  </i>
   <i type="logical" name="LPARD"> F  </i>
   <i type="logical" name="LVTOT"> F  </i>
   <i type="logical" name="LVHAR"> F  </i>
   <i type="logical" name="LELF"> F  </i>
   <i type="logical" name="LOPTICS"> F  </i>
   <v name="STM">      0.00000000      0.00000000      0.00000000      0.00000000      0.00000000      0.00000000      0.00000000</v>
  </separator>
  <separator name="performance" >
   <i type="int" name="NPAR">     1</i>
   <i type="int" name="NSIM">     4</i>
   <i type="int" name="NBLK">    -1</i>
   <i type="logical" name="LPLANE"> T  </i>
   <i type="logical" name="LSCALAPACK"> T  </i>
   <i type="logical" name="LSCAAWARE"> F  </i>
   <i type="logical" name="LSCALU"> F  </i>
   <i type="logical" name="LASYNC"> F  </i>
   <i type="logical" name="LORBITALREAL"> F  </i>
  </separator>
  <separator name="miscellaneous" >
   <i type="int" name="IDIOT">     3</i>
   <i type="logical" name="LMUSIC"> F  </i>
   <v name="POMASS">     10.81100000     55.84700000</v>
   <v name="DARWINR">      0.00000000      0.00000000</v>
   <v name="DARWINV">      1.00000000      1.00000000</v>
   <i type="logical" name="LCORR"> T  </i>
  </separator>
  <i type="logical" name="GGA_COMPAT"> T  </i>
  <i type="logical" name="LBERRY"> F  </i>
  <i type="int" name="ICORELEVEL">     0</i>
  <i type="logical" name="LDAU"> F  </i>
  <i type="int" name="I_CONSTRAINED_M">     0</i>
  <separator name="electronic exchange-correlation" >
   <i type="string" name="GGA">PE</i>
   <i type="int" name="VOSKOWN">     0</i>
   <i type="logical" name="LHFCALC"> F  </i>
   <i type="string" name="PRECFOCK"></i>
   <i type="logical" name="LSYMGRAD"> F  </i>
   <i type="logical" name="LHFONE"> F  </i>
   <i type="logical" name="LRHFCALC"> F  </i>
   <i type="logical" name="LTHOMAS"> F  </i>
   <i type="logical" name="LMODELHF"> F  </i>
   <i name="ENCUT4O">     -1.00000000</i>
   <i type="int" name="EXXOEP">     0</i>
   <i type="int" name="FOURORBIT">     0</i>
   <i name="AEXX">      0.00000000</i>
   <i name="HFALPHA">      0.00000000</i>
   <i name="MCALPHA">      0.00000000</i>
   <i name="ALDAX">      1.00000000</i>
   <i name="AGGAX">      1.00000000</i>
   <i name="ALDAC">      1.00000000</i>
   <i name="AGGAC">      1.00000000</i>
   <i type="int" name="NKREDX">     1</i>
   <i type="int" name="NKREDY">     1</i>
   <i type="int" name="NKREDZ">     1</i>
   <i type="logical" name="SHIFTRED"> F  </i>
   <i type="logical" name="ODDONLY"> F  </i>
   <i type="logical" name="EVENONLY"> F  </i>
   <i type="int" name="LMAXFOCK">     0</i>
   <i type="int" name="NMAXFOCKAE">     0</i>
   <i type="logical" name="LFOCKAEDFT"> F  </i>
   <i name="HFSCREEN">      0.00000000</i>
   <i name="HFSCREENC">      0.00000000</i>
   <i type="int" name="NBANDSGWLOW">     0</i>
  </separator>
  <separator name="vdW DFT" >
   <i type="logical" name="LUSE_VDW"> F  </i>
   <i name="Zab_VDW">     -0.84910000</i>
   <i name="PARAM1">      0.12340000</i>
   <i name="PARAM2">      1.00000000</i>
   <i name="PARAM3">      0.00000000</i>
  </separator>
  <separator name="model GW" >
   <i type="int" name="MODEL_GW">     0</i>
   <i name="MODEL_EPS0">     26.22766829</i>
   <i name="MODEL_ALPHA">      1.00000000</i>
  </separator>
  <separator name="linear response parameters" >
   <i type="logical" name="LEPSILON"> F  </i>
   <i type="logical" name="LRPA"> F  </i>
   <i type="logical" name="LNABLA"> F  </i>
   <i type="logical" name="LVEL"> F  </i>
   <i type="int" name="KINTER">     0</i>
   <i name="CSHIFT">      0.10000000</i>
   <i name="OMEGAMAX">     -1.00000000</i>
   <i name="DEG_THRESHOLD">      0.00200000</i>
  </separator>
  <separator name="orbital magnetization" >
   <i type="logical" name="NUCIND"> F  </i>
   <v name="MAGPOS">      0.00000000      0.00000000      0.00000000</v>
   <i type="logical" name="LNICSALL"> T  </i>
   <i type="logical" name="ORBITALMAG"> F  </i>
   <i type="logical" name="LMAGBLOCH"> F  </i>
   <i type="logical" name="LCHIMAG"> F  </i>
   <i type="logical" name="LGAUGE"> T  </i>
   <i type="int" name="MAGATOM">     0</i>
   <v name="MAGDIPOL">      0.00000000      0.00000000      0.00000000</v>
   <v name="AVECCONST">      0.00000000      0.00000000      0.00000000</v>
  </separator>
  <separator name="response functions" >
   <i type="logical" name="LADDER"> F  </i>
   <i type="logical" name="LFXC"> F  </i>
   <i type="logical" name="LHARTREE"> T  </i>
   <i type="int" name="IBSE">     0</i>
   <i type="logical" name="LTCTE"> F  </i>
   <i type="logical" name="LTETE"> F  </i>
   <i type="logical" name="LTRIPLET"> F  </i>
   <i type="logical" name="LFXCEPS"> F  </i>
   <i type="logical" name="L2ORDER"> F  </i>
   <i type="logical" name="LUSEW"> F  </i>
   <i name="ENCUTGW">     -2.00000000</i>
   <i name="ENCUTGWSOFT">     -2.00000000</i>
   <i name="ENCUTLF">     -1.00000000</i>
   <i type="int" name="LMAXMP2">    -1</i>
   <i name="SCISSOR">      0.00000000</i>
   <i type="int" name="NOMEGA">     0</i>
   <i type="int" name="NOMEGAR">     0</i>
   <i type="int" name="NBANDSGW">    -1</i>
   <i type="int" name="NBANDSO">    -1</i>
   <i type="int" name="NBANDSV">    -1</i>
   <i type="int" name="NELM">    60</i>
   <i type="int" name="DIM">     3</i>
   <i type="int" name="ANTIRES">     0</i>
   <i name="OMEGAMAX">    -30.00000000</i>
   <i name="OMEGATL">   -200.00000000</i>
   <i type="int" name="OMEGAGRID">     0</i>
   <i name="CSHIFT">     -0.10000000</i>
   <i type="logical" name="SELFENERGY"> F  </i>
   <i type="logical" name="LSPECTRAL"> F  </i>
   <i type="logical" name="ODDONLYGW"> F  </i>
   <i type="logical" name="EVENONLYGW"> F  </i>
   <i type="int" name="NKREDLFX">     1</i>
   <i type="int" name="NKREDLFY">     1</i>
   <i type="int" name="NKREDLFZ">     1</i>
   <i type="int" name="MAXMEM">  1800</i>
   <i type="int" name="TELESCOPE">     0</i>
  </separator>
 </parameters>
 <atominfo>
  <atoms>      41 </atoms>
  <types>       2 </types>
  <array name="atoms" >
   <dimension dim="1">ion</dimension>
   <field type="string">element</field>
   <field type="int">atomtype</field>
   <set>
    <rc><c>B </c><c>   1</c></rc>
    <rc><c>B </c><c>   1</c></rc>
    <rc><c>B </c><c>   1</c></rc>
    <rc><c>B </c><c>   1</c></rc>
    <rc><c>B </c><c>   1</c></rc>
    <rc><c>B </c><c>   1</c></rc>
    <rc><c>B </c><c>   1</c></rc>
    <rc><c>B </c><c>   1</c></rc>
    <rc><c>B </c><c>   1</c></rc>
    <rc><c>B </c><c>   1</c></rc>
    <rc><c>B </c><c>   1</c></rc>
    <rc><c>B </c><c>   1</c></rc>
    <rc><c>B </c><c>   1</c></rc>
    <rc><c>B </c><c>   1</c></rc>
    <rc><c>B </c><c>   1</c></rc>
    <rc><c>B </c><c>   1</c></rc>
    <rc><c>B </c><c>   1</c></rc>
    <rc><c>B </c><c>   1</c></rc>
    <rc><c>B </c><c>   1</c></rc>
    <rc><c>B </c><c>   1</c></rc>
    <rc><c>B </c><c>   1</c></rc>
    <rc><c>B </c><c>   1</c></rc>
    <rc><c>B </c><c>   1</c></rc>
    <rc><c>B </c><c>   1</c></rc>
    <rc><c>B </c><c>   1</c></rc>
    <rc><c>B </c><c>   1</c></rc>
    <rc><c>B </c><c>   1</c></rc>
    <rc><c>B </c><c>   1</c></rc>
    <rc><c>B </c><c>   1</c></rc>
    <rc><c>B </c><c>   1</c></rc>
    <rc><c>B </c><c>   1</c></rc>
    <rc><c>B </c><c>   1</c></rc>
    <rc><c>B </c><c>   1</c></rc>
    <rc><c>B </c><c>   1</c></rc>
    <rc><c>B </c><c>   1</c></rc>
    <rc><c>B </c><c>   1</c></rc>
    <rc><c>B </c><c>   1</c></rc>
    <rc><c>B </c><c>   1</c></rc>
    <rc><c>B </c><c>   1</c></rc>
    <rc><c>B </c><c>   1</c></rc>
    <rc><c>Fe</c><c>   2</c></rc>
   </set>
  </array>
  <array name="atomtypes" >
   <dimension dim="1">type</dimension>
   <field type="int">atomspertype</field>
   <field type="string">element</field>
   <field>mass</field>
   <field>valence</field>
   <field type="string">pseudopotential</field>
   <set>
    <rc><c>  40</c><c>B </c><c>     10.81100000</c><c>      3.00000000</c><c>  PAW_PBE B 06Sep2000                   </c></rc>
    <rc><c>   1</c><c>Fe</c><c>     55.84700000</c><c>      8.00000000</c><c>  PAW_PBE Fe 06Sep2000                  </c></rc>
   </set>
  </array>
 </atominfo>
 <structure name="initialpos" >
  <crystal>
   <varray name="basis" >
    <v>      10.16000000       0.00000000       0.00000000 </v>
    <v>       0.00000000      11.76000000       0.00000000 </v>
    <v>       0.00000000       0.00000000      15.00000000 </v>
   </varray>
   <i name="volume">   1792.22400000 </i>
   <varray name="rec_basis" >
    <v>       0.09842520       0.00000000       0.00000000 </v>
    <v>       0.00000000       0.08503401       0.00000000 </v>
    <v>       0.00000000       0.00000000       0.06666667 </v>
   </varray>
  </crystal>
  <varray name="positions" >
   <v>       0.99811000       0.00000000       0.00000000 </v>
   <v>       0.16667000       0.00000000       0.00000000 </v>
   <v>       0.33522000       0.00000000       0.00000000 </v>
   <v>       0.08000000       0.12500000       0.00000000 </v>
   <v>       0.25334000       0.12500000       0.00000000 </v>
   <v>       0.99811000       0.25000000       0.00000000 </v>
   <v>       0.16667000       0.25000000       0.00000000 </v>
   <v>       0.33522000       0.25000000       0.00000000 </v>
   <v>       0.08000000       0.37500000       0.00000000 </v>
   <v>       0.25334000       0.37500000       0.00000000 </v>
   <v>       0.99811000       0.50000000       0.00000000 </v>
   <v>       0.16667000       0.50000000       0.00000000 </v>
   <v>       0.33522000       0.50000000       0.00000000 </v>
   <v>       0.08000000       0.62500000       0.00000000 </v>
   <v>       0.25334000       0.62500000       0.00000000 </v>
   <v>       0.99811000       0.75000000       0.00000000 </v>
   <v>       0.16667000       0.75000000       0.00000000 </v>
   <v>       0.33522000       0.75000000       0.00000000 </v>
   <v>       0.08000000       0.87500000       0.00000000 </v>
   <v>       0.25334000       0.87500000       0.00000000 </v>
   <v>       0.49811000       0.00000000       0.00000000 </v>
   <v>       0.66667000       0.00000000       0.00000000 </v>
   <v>       0.83522000       0.00000000       0.00000000 </v>
   <v>       0.58000000       0.12500000       0.00000000 </v>
   <v>       0.75334000       0.12500000       0.00000000 </v>
   <v>       0.49811000       0.25000000       0.00000000 </v>
   <v>       0.66667000       0.25000000       0.00000000 </v>
   <v>       0.83522000       0.25000000       0.00000000 </v>
   <v>       0.58000000       0.37500000       0.00000000 </v>
   <v>       0.75334000       0.37500000       0.00000000 </v>
   <v>       0.49811000       0.50000000       0.00000000 </v>
   <v>       0.66667000       0.50000000       0.00000000 </v>
   <v>       0.83522000       0.50000000       0.00000000 </v>
   <v>       0.58000000       0.62500000       0.00000000 </v>
   <v>       0.75334000       0.62500000       0.00000000 </v>
   <v>       0.49811000       0.75000000       0.00000000 </v>
   <v>       0.66667000       0.75000000       0.00000000 </v>
   <v>       0.83522000       0.75000000       0.00000000 </v>
   <v>       0.58000000       0.87500000       0.00000000 </v>
   <v>       0.75334000       0.87500000       0.00000000 </v>
   <v>       0.41667000       0.12500000       0.13333000 </v>
  </varray>
 </structure>
 <calculation>
  <scstep>
   <time name="dav">   21.10   21.10</time>
   <time name="total">   22.13   22.14</time>
   <dipole>
    <v name="dipole">      0.00000000       0.00000000      -0.00002925 </v>
    <i name="Tr[quadrupol]">  -2616.75839173 </i>
    <i name="Echarged">      0.00000000 </i>
    <i name="Edipol_quadrupol">      0.00000000 </i>
    <i name="Eion">      0.00000000 </i>
   </dipole>
   <energy>
    <i name="alphaZ">     71.68099793 </i>
    <i name="ewald">   8382.25343433 </i>
    <i name="hartreedc"> -10832.71982705 </i>
    <i name="XCdc">    272.90201569 </i>
    <i name="pawpsdc">   2294.84047363 </i>
    <i name="pawaedc">  -2268.33005866 </i>
    <i name="eentropy">      0.00480541 </i>
    <i name="bandstr">   -450.20550511 </i>
    <i name="atom">   3441.07734177 </i>
    <i name="e_fr_energy">    911.50367794 </i>
    <i name="e_wo_entrp">    911.49887253 </i>
    <i name="e_0_energy">    911.50207614 </i>
   </energy>
  </scstep>
  <scstep>
   <time name="dav">   30.11   30.12</time>
   <time name="total">   30.12   30.12</time>
   <dipole>
    <v name="dipole">      0.00000000       0.00000000      -0.00002925 </v>
    <i name="Tr[quadrupol]">  -2616.75839173 </i>
    <i name="Echarged">      0.00000000 </i>
    <i name="Edipol_quadrupol">      0.00000000 </i>
    <i name="Eion">      0.00000000 </i>
   </dipole>
   <energy>
    <i name="e_fr_energy">   -151.53826706 </i>
    <i name="e_wo_entrp">   -151.53595072 </i>
    <i name="e_0_energy">   -151.53749495 </i>
   </energy>
  </scstep>
  <scstep>
   <time name="dav">   25.23   25.23</time>
   <time name="total">   25.23   25.24</time>
   <dipole>
    <v name="dipole">      0.00000000       0.00000000      -0.00002925 </v>
    <i name="Tr[quadrupol]">  -2616.75839173 </i>
    <i name="Echarged">      0.00000000 </i>
    <i name="Edipol_quadrupol">      0.00000000 </i>
    <i name="Eion">      0.00000000 </i>
   </dipole>
   <energy>
    <i name="e_fr_energy">   -303.34907041 </i>
    <i name="e_wo_entrp">   -303.34369218 </i>
    <i name="e_0_energy">   -303.34727766 </i>
   </energy>
  </scstep>
  <scstep>
   <time name="dav">   29.45   29.45</time>
   <time name="total">   29.46   29.46</time>
   <dipole>
    <v name="dipole">      0.00000000       0.00000000      -0.00002925 </v>
    <i name="Tr[quadrupol]">  -2616.75839173 </i>
    <i name="Echarged">      0.00000000 </i>
    <i name="Edipol_quadrupol">      0.00000000 </i>
    <i name="Eion">      0.00000000 </i>
   </dipole>
   <energy>
    <i name="e_fr_energy">   -309.24411301 </i>
    <i name="e_wo_entrp">   -309.23329657 </i>
    <i name="e_0_energy">   -309.24050753 </i>
   </energy>
  </scstep>
  <scstep>
   <time name="dav">   30.83   30.83</time>
   <time name="total">   32.62   32.63</time>
   <dipole>
    <v name="dipole">      0.00000000       0.00000000      -0.00002925 </v>
    <i name="Tr[quadrupol]">  -2616.75839173 </i>
    <i name="Echarged">      0.00000000 </i>
    <i name="Edipol_quadrupol">      0.00000000 </i>
    <i name="Eion">      0.00000000 </i>
   </dipole>
   <energy>
    <i name="e_fr_energy">   -309.44651932 </i>
    <i name="e_wo_entrp">   -309.43622212 </i>
    <i name="e_0_energy">   -309.44308692 </i>
   </energy>
  </scstep>
  <scstep>
   <time name="dav">   35.53   35.53</time>
   <time name="total">   38.17   38.17</time>
   <dipole>
    <v name="dipole">      0.00000000       0.00000000      -1.23804048 </v>
    <i name="Tr[quadrupol]">  -2619.53421691 </i>
    <i name="Echarged">      0.00000000 </i>
    <i name="Edipol_quadrupol">      0.00000000 </i>
    <i name="Eion">      0.00000000 </i>
   </dipole>
   <energy>
    <i name="e_fr_energy">   -410.12547791 </i>
    <i name="e_wo_entrp">   -410.12273509 </i>
    <i name="e_0_energy">   -410.12456363 </i>
   </energy>
  </scstep>
  <scstep>
   <time name="dav">   28.05   28.05</time>
   <time name="total">   30.70   30.70</time>
   <dipole>
    <v name="dipole">      0.00000000       0.00000000      -1.13336693 </v>
    <i name="Tr[quadrupol]">  -2619.16846334 </i>
    <i name="Echarged">      0.00000000 </i>
    <i name="Edipol_quadrupol">      0.00000000 </i>
    <i name="Eion">      0.00000000 </i>
   </dipole>
   <energy>
    <i name="e_fr_energy">   -406.21912057 </i>
    <i name="e_wo_entrp">   -406.22356105 </i>
    <i name="e_0_energy">   -406.22060073 </i>
   </energy>
  </scstep>
  <scstep>
   <time name="dav">   26.15   26.15</time>
   <time name="total">   28.77   28.78</time>
   <dipole>
    <v name="dipole">      0.00000000       0.00000000      -0.56529311 </v>
    <i name="Tr[quadrupol]">  -2619.55261068 </i>
    <i name="Echarged">      0.00000000 </i>
    <i name="Edipol_quadrupol">      0.00000000 </i>
    <i name="Eion">      0.00000000 </i>
   </dipole>
   <energy>
    <i name="e_fr_energy">   -287.11838021 </i>
    <i name="e_wo_entrp">   -287.12424801 </i>
    <i name="e_0_energy">   -287.12033615 </i>
   </energy>
  </scstep>
  <scstep>
   <time name="dav">   26.26   26.26</time>
   <time name="total">   28.97   28.98</time>
   <dipole>
    <v name="dipole">      0.00000000       0.00000000      -0.47059424 </v>
    <i name="Tr[quadrupol]">  -2620.35874762 </i>
    <i name="Echarged">      0.00000000 </i>
    <i name="Edipol_quadrupol">      0.00000000 </i>
    <i name="Eion">      0.00000000 </i>
   </dipole>
   <energy>
    <i name="e_fr_energy">   -259.03358307 </i>
    <i name="e_wo_entrp">   -259.04575308 </i>
    <i name="e_0_energy">   -259.03763974 </i>
   </energy>
  </scstep>
  <scstep>
   <time name="dav">   28.87   28.87</time>
   <time name="total">   31.57   31.57</time>
   <dipole>
    <v name="dipole">      0.00000000       0.00000000      -0.64855649 </v>
    <i name="Tr[quadrupol]">  -2622.53889072 </i>
    <i name="Echarged">      0.00000000 </i>
    <i name="Edipol_quadrupol">      0.00000000 </i>
    <i name="Eion">      0.00000000 </i>
   </dipole>
   <energy>
    <i name="e_fr_energy">   -260.34055599 </i>
    <i name="e_wo_entrp">   -260.34594566 </i>
    <i name="e_0_energy">   -260.34235255 </i>
   </energy>
  </scstep>
  <scstep>
   <time name="dav">   30.31   30.31</time>
   <time name="total">   33.09   33.10</time>
   <dipole>
    <v name="dipole">      0.00000000       0.00000000      -0.51365658 </v>
    <i name="Tr[quadrupol]">  -2623.35302451 </i>
    <i name="Echarged">      0.00000000 </i>
    <i name="Edipol_quadrupol">      0.00000000 </i>
    <i name="Eion">      0.00000000 </i>
   </dipole>
   <energy>
    <i name="e_fr_energy">   -259.11247814 </i>
    <i name="e_wo_entrp">   -259.08218613 </i>
    <i name="e_0_energy">   -259.10238080 </i>
   </energy>
  </scstep>
  <scstep>
   <time name="dav">   29.70   29.75</time>
   <time name="total">   32.42   32.47</time>
   <dipole>
    <v name="dipole">      0.00000000       0.00000000      -0.65549287 </v>
    <i name="Tr[quadrupol]">  -2623.83999931 </i>
    <i name="Echarged">      0.00000000 </i>
    <i name="Edipol_quadrupol">      0.00000000 </i>
    <i name="Eion">      0.00000000 </i>
   </dipole>
   <energy>
    <i name="e_fr_energy">   -261.17444377 </i>
    <i name="e_wo_entrp">   -261.17726663 </i>
    <i name="e_0_energy">   -261.17538472 </i>
   </energy>
  </scstep>
  <scstep>
   <time name="dav">   29.83   29.83</time>
   <time name="total">   32.51   32.52</time>
   <dipole>
    <v name="dipole">      0.00000000       0.00000000      -0.56637028 </v>
    <i name="Tr[quadrupol]">  -2625.32522878 </i>
    <i name="Echarged">      0.00000000 </i>
    <i name="Edipol_quadrupol">      0.00000000 </i>
    <i name="Eion">      0.00000000 </i>
   </dipole>
   <energy>
    <i name="e_fr_energy">   -257.70497956 </i>
    <i name="e_wo_entrp">   -257.70484366 </i>
    <i name="e_0_energy">   -257.70493426 </i>
   </energy>
  </scstep>
  <scstep>
   <time name="dav">   29.83   29.83</time>
   <time name="total">   32.54   32.55</time>
   <dipole>
    <v name="dipole">      0.00000000       0.00000000      -0.49012754 </v>
    <i name="Tr[quadrupol]">  -2626.98547924 </i>
    <i name="Echarged">      0.00000000 </i>
    <i name="Edipol_quadrupol">      0.00000000 </i>
    <i name="Eion">      0.00000000 </i>
   </dipole>
   <energy>
    <i name="e_fr_energy">   -254.94594529 </i>
    <i name="e_wo_entrp">   -254.90285270 </i>
    <i name="e_0_energy">   -254.93158109 </i>
   </energy>
  </scstep>
  <scstep>
   <time name="dav">   28.10   28.10</time>
   <time name="total">   30.80   30.81</time>
   <dipole>
    <v name="dipole">      0.00000000       0.00000000      -0.50646310 </v>
    <i name="Tr[quadrupol]">  -2627.08639516 </i>
    <i name="Echarged">      0.00000000 </i>
    <i name="Edipol_quadrupol">      0.00000000 </i>
    <i name="Eion">      0.00000000 </i>
   </dipole>
   <energy>
    <i name="e_fr_energy">   -254.75471903 </i>
    <i name="e_wo_entrp">   -254.76376354 </i>
    <i name="e_0_energy">   -254.75773387 </i>
   </energy>
  </scstep>
  <scstep>
   <time name="dav">   30.03   30.03</time>
   <time name="total">   32.79   32.80</time>
   <dipole>
    <v name="dipole">      0.00000000       0.00000000      -0.51532255 </v>
    <i name="Tr[quadrupol]">  -2627.14770236 </i>
    <i name="Echarged">      0.00000000 </i>
    <i name="Edipol_quadrupol">      0.00000000 </i>
    <i name="Eion">      0.00000000 </i>
   </dipole>
   <energy>
    <i name="e_fr_energy">   -254.73459331 </i>
    <i name="e_wo_entrp">   -254.71295012 </i>
    <i name="e_0_energy">   -254.72737891 </i>
   </energy>
  </scstep>
  <scstep>
   <time name="dav">   27.62   27.62</time>
   <time name="total">   30.33   30.33</time>
   <dipole>
    <v name="dipole">      0.00000000       0.00000000      -0.51396130 </v>
    <i name="Tr[quadrupol]">  -2627.15772258 </i>
    <i name="Echarged">      0.00000000 </i>
    <i name="Edipol_quadrupol">      0.00000000 </i>
    <i name="Eion">      0.00000000 </i>
   </dipole>
   <energy>
    <i name="e_fr_energy">   -254.74944582 </i>
    <i name="e_wo_entrp">   -254.75118760 </i>
    <i name="e_0_energy">   -254.75002641 </i>
   </energy>
  </scstep>
  <scstep>
   <time name="dav">   26.64   26.64</time>
   <time name="total">   29.40   29.40</time>
   <dipole>
    <v name="dipole">      0.00000000       0.00000000      -0.51081444 </v>
    <i name="Tr[quadrupol]">  -2627.26106110 </i>
    <i name="Echarged">      0.00000000 </i>
    <i name="Edipol_quadrupol">      0.00000000 </i>
    <i name="Eion">      0.00000000 </i>
   </dipole>
   <energy>
    <i name="e_fr_energy">   -254.67609999 </i>
    <i name="e_wo_entrp">   -254.66753290 </i>
    <i name="e_0_energy">   -254.67324429 </i>
   </energy>
  </scstep>
  <scstep>
   <time name="dav">   25.30   25.30</time>
   <time name="total">   28.01   28.01</time>
   <dipole>
    <v name="dipole">      0.00000000       0.00000000      -0.50706423 </v>
    <i name="Tr[quadrupol]">  -2627.33205861 </i>
    <i name="Echarged">      0.00000000 </i>
    <i name="Edipol_quadrupol">      0.00000000 </i>
    <i name="Eion">      0.00000000 </i>
   </dipole>
   <energy>
    <i name="e_fr_energy">   -254.58754432 </i>
    <i name="e_wo_entrp">   -254.56620494 </i>
    <i name="e_0_energy">   -254.58043120 </i>
   </energy>
  </scstep>
  <scstep>
   <time name="dav">   26.43   26.44</time>
   <time name="total">   29.09   29.10</time>
   <dipole>
    <v name="dipole">      0.00000000       0.00000000      -0.49848449 </v>
    <i name="Tr[quadrupol]">  -2627.60427193 </i>
    <i name="Echarged">      0.00000000 </i>
    <i name="Edipol_quadrupol">      0.00000000 </i>
    <i name="Eion">      0.00000000 </i>
   </dipole>
   <energy>
    <i name="e_fr_energy">   -254.52259485 </i>
    <i name="e_wo_entrp">   -254.48798103 </i>
    <i name="e_0_energy">   -254.51105691 </i>
   </energy>
  </scstep>
  <scstep>
   <time name="dav">   25.78   25.79</time>
   <time name="total">   28.47   28.48</time>
   <dipole>
    <v name="dipole">      0.00000000       0.00000000      -0.49842993 </v>
    <i name="Tr[quadrupol]">  -2627.60659107 </i>
    <i name="Echarged">      0.00000000 </i>
    <i name="Edipol_quadrupol">      0.00000000 </i>
    <i name="Eion">      0.00000000 </i>
   </dipole>
   <energy>
    <i name="e_fr_energy">   -254.56991733 </i>
    <i name="e_wo_entrp">   -254.55088840 </i>
    <i name="e_0_energy">   -254.56357436 </i>
   </energy>
  </scstep>
  <scstep>
   <time name="dav">   25.93   25.93</time>
   <time name="total">   28.58   28.59</time>
   <dipole>
    <v name="dipole">      0.00000000       0.00000000      -0.49886734 </v>
    <i name="Tr[quadrupol]">  -2627.70533315 </i>
    <i name="Echarged">      0.00000000 </i>
    <i name="Edipol_quadrupol">      0.00000000 </i>
    <i name="Eion">      0.00000000 </i>
   </dipole>
   <energy>
    <i name="e_fr_energy">   -254.62701153 </i>
    <i name="e_wo_entrp">   -254.61011899 </i>
    <i name="e_0_energy">   -254.62138068 </i>
   </energy>
  </scstep>
  <scstep>
   <time name="dav">   25.13   25.14</time>
   <time name="total">   27.82   27.82</time>
   <dipole>
    <v name="dipole">      0.00000000       0.00000000      -0.49814918 </v>
    <i name="Tr[quadrupol]">  -2627.71496378 </i>
    <i name="Echarged">      0.00000000 </i>
    <i name="Edipol_quadrupol">      0.00000000 </i>
    <i name="Eion">      0.00000000 </i>
   </dipole>
   <energy>
    <i name="e_fr_energy">   -254.63213183 </i>
    <i name="e_wo_entrp">   -254.61184085 </i>
    <i name="e_0_energy">   -254.62536817 </i>
   </energy>
  </scstep>
  <scstep>
   <time name="dav">   27.33   27.33</time>
   <time name="total">   30.08   30.09</time>
   <dipole>
    <v name="dipole">      0.00000000       0.00000000      -0.49507467 </v>
    <i name="Tr[quadrupol]">  -2627.86684955 </i>
    <i name="Echarged">      0.00000000 </i>
    <i name="Edipol_quadrupol">      0.00000000 </i>
    <i name="Eion">      0.00000000 </i>
   </dipole>
   <energy>
    <i name="e_fr_energy">   -254.68542202 </i>
    <i name="e_wo_entrp">   -254.67428018 </i>
    <i name="e_0_energy">   -254.68170807 </i>
   </energy>
  </scstep>
  <scstep>
   <time name="dav">   24.52   24.57</time>
   <time name="total">   27.22   27.27</time>
   <dipole>
    <v name="dipole">      0.00000000       0.00000000      -0.49454502 </v>
    <i name="Tr[quadrupol]">  -2627.86176874 </i>
    <i name="Echarged">      0.00000000 </i>
    <i name="Edipol_quadrupol">      0.00000000 </i>
    <i name="Eion">      0.00000000 </i>
   </dipole>
   <energy>
    <i name="e_fr_energy">   -254.67896006 </i>
    <i name="e_wo_entrp">   -254.66659031 </i>
    <i name="e_0_energy">   -254.67483681 </i>
   </energy>
  </scstep>
  <scstep>
   <time name="dav">   24.40   24.40</time>
   <time name="total">   27.16   27.17</time>
   <dipole>
    <v name="dipole">      0.00000000       0.00000000      -0.49471712 </v>
    <i name="Tr[quadrupol]">  -2627.98851108 </i>
    <i name="Echarged">      0.00000000 </i>
    <i name="Edipol_quadrupol">      0.00000000 </i>
    <i name="Eion">      0.00000000 </i>
   </dipole>
   <energy>
    <i name="e_fr_energy">   -254.66431612 </i>
    <i name="e_wo_entrp">   -254.65739715 </i>
    <i name="e_0_energy">   -254.66200980 </i>
   </energy>
  </scstep>
  <scstep>
   <time name="dav">   24.29   24.29</time>
   <time name="total">   27.01   27.01</time>
   <dipole>
    <v name="dipole">      0.00000000       0.00000000      -0.49502721 </v>
    <i name="Tr[quadrupol]">  -2627.98695015 </i>
    <i name="Echarged">      0.00000000 </i>
    <i name="Edipol_quadrupol">      0.00000000 </i>
    <i name="Eion">      0.00000000 </i>
   </dipole>
   <energy>
    <i name="e_fr_energy">   -254.61777703 </i>
    <i name="e_wo_entrp">   -254.60786403 </i>
    <i name="e_0_energy">   -254.61447270 </i>
   </energy>
  </scstep>
  <scstep>
   <time name="dav">   23.20   23.20</time>
   <time name="total">   25.94   25.95</time>
   <dipole>
    <v name="dipole">      0.00000000       0.00000000      -0.49623575 </v>
    <i name="Tr[quadrupol]">  -2627.96596096 </i>
    <i name="Echarged">      0.00000000 </i>
    <i name="Edipol_quadrupol">      0.00000000 </i>
    <i name="Eion">      0.00000000 </i>
   </dipole>
   <energy>
    <i name="e_fr_energy">   -254.56464273 </i>
    <i name="e_wo_entrp">   -254.54974879 </i>
    <i name="e_0_energy">   -254.55967808 </i>
   </energy>
  </scstep>
  <scstep>
   <time name="dav">   24.47   24.47</time>
   <time name="total">   27.19   27.19</time>
   <dipole>
    <v name="dipole">      0.00000000       0.00000000      -0.48248135 </v>
    <i name="Tr[quadrupol]">  -2628.93365014 </i>
    <i name="Echarged">      0.00000000 </i>
    <i name="Edipol_quadrupol">      0.00000000 </i>
    <i name="Eion">      0.00000000 </i>
   </dipole>
   <energy>
    <i name="e_fr_energy">   -254.70895180 </i>
    <i name="e_wo_entrp">   -254.70346660 </i>
    <i name="e_0_energy">   -254.70712340 </i>
   </energy>
  </scstep>
  <scstep>
   <time name="dav">   26.03   26.03</time>
   <time name="total">   28.78   28.79</time>
   <dipole>
    <v name="dipole">      0.00000000       0.00000000      -0.48511297 </v>
    <i name="Tr[quadrupol]">  -2629.55919266 </i>
    <i name="Echarged">      0.00000000 </i>
    <i name="Edipol_quadrupol">      0.00000000 </i>
    <i name="Eion">      0.00000000 </i>
   </dipole>
   <energy>
    <i name="e_fr_energy">   -254.71556724 </i>
    <i name="e_wo_entrp">   -254.70712615 </i>
    <i name="e_0_energy">   -254.71275355 </i>
   </energy>
  </scstep>
  <scstep>
   <time name="dav">   24.45   24.45</time>
   <time name="total">   27.17   27.17</time>
   <dipole>
    <v name="dipole">      0.00000000       0.00000000      -0.49142750 </v>
    <i name="Tr[quadrupol]">  -2629.85025254 </i>
    <i name="Echarged">      0.00000000 </i>
    <i name="Edipol_quadrupol">      0.00000000 </i>
    <i name="Eion">      0.00000000 </i>
   </dipole>
   <energy>
    <i name="e_fr_energy">   -254.72123814 </i>
    <i name="e_wo_entrp">   -254.71616208 </i>
    <i name="e_0_energy">   -254.71954612 </i>
   </energy>
  </scstep>
  <scstep>
   <time name="dav">   25.67   25.67</time>
   <time name="total">   28.45   28.46</time>
   <dipole>
    <v name="dipole">      0.00000000       0.00000000      -0.49971947 </v>
    <i name="Tr[quadrupol]">  -2630.19376754 </i>
    <i name="Echarged">      0.00000000 </i>
    <i name="Edipol_quadrupol">      0.00000000 </i>
    <i name="Eion">      0.00000000 </i>
   </dipole>
   <energy>
    <i name="e_fr_energy">   -254.70663113 </i>
    <i name="e_wo_entrp">   -254.69642416 </i>
    <i name="e_0_energy">   -254.70322881 </i>
   </energy>
  </scstep>
  <scstep>
   <time name="dav">   27.86   27.86</time>
   <time name="total">   30.65   30.65</time>
   <dipole>
    <v name="dipole">      0.00000000       0.00000000      -0.51737390 </v>
    <i name="Tr[quadrupol]">  -2630.59893582 </i>
    <i name="Echarged">      0.00000000 </i>
    <i name="Edipol_quadrupol">      0.00000000 </i>
    <i name="Eion">      0.00000000 </i>
   </dipole>
   <energy>
    <i name="e_fr_energy">   -254.64745397 </i>
    <i name="e_wo_entrp">   -254.65015453 </i>
    <i name="e_0_energy">   -254.64835416 </i>
   </energy>
  </scstep>
  <scstep>
   <time name="dav">   27.26   27.26</time>
   <time name="total">   30.05   30.05</time>
   <dipole>
    <v name="dipole">      0.00000000       0.00000000      -0.51573231 </v>
    <i name="Tr[quadrupol]">  -2630.79025370 </i>
    <i name="Echarged">      0.00000000 </i>
    <i name="Edipol_quadrupol">      0.00000000 </i>
    <i name="Eion">      0.00000000 </i>
   </dipole>
   <energy>
    <i name="e_fr_energy">   -254.67216601 </i>
    <i name="e_wo_entrp">   -254.67178703 </i>
    <i name="e_0_energy">   -254.67203968 </i>
   </energy>
  </scstep>
  <scstep>
   <time name="dav">   26.30   26.30</time>
   <time name="total">   29.12   29.13</time>
   <dipole>
    <v name="dipole">      0.00000000       0.00000000      -0.51591456 </v>
    <i name="Tr[quadrupol]">  -2630.78767688 </i>
    <i name="Echarged">      0.00000000 </i>
    <i name="Edipol_quadrupol">      0.00000000 </i>
    <i name="Eion">      0.00000000 </i>
   </dipole>
   <energy>
    <i name="e_fr_energy">   -254.67907290 </i>
    <i name="e_wo_entrp">   -254.68034149 </i>
    <i name="e_0_energy">   -254.67949576 </i>
   </energy>
  </scstep>
  <scstep>
   <time name="dav">   26.03   26.03</time>
   <time name="total">   28.84   28.85</time>
   <dipole>
    <v name="dipole">      0.00000000       0.00000000      -0.51059289 </v>
    <i name="Tr[quadrupol]">  -2630.87793119 </i>
    <i name="Echarged">      0.00000000 </i>
    <i name="Edipol_quadrupol">      0.00000000 </i>
    <i name="Eion">      0.00000000 </i>
   </dipole>
   <energy>
    <i name="e_fr_energy">   -254.72186269 </i>
    <i name="e_wo_entrp">   -254.72459961 </i>
    <i name="e_0_energy">   -254.72277499 </i>
   </energy>
  </scstep>
  <scstep>
   <time name="dav">   27.17   27.17</time>
   <time name="total">   30.01   30.01</time>
   <dipole>
    <v name="dipole">      0.00000000       0.00000000      -0.50995453 </v>
    <i name="Tr[quadrupol]">  -2630.90284003 </i>
    <i name="Echarged">      0.00000000 </i>
    <i name="Edipol_quadrupol">      0.00000000 </i>
    <i name="Eion">      0.00000000 </i>
   </dipole>
   <energy>
    <i name="e_fr_energy">   -254.74627564 </i>
    <i name="e_wo_entrp">   -254.74993607 </i>
    <i name="e_0_energy">   -254.74749578 </i>
   </energy>
  </scstep>
  <scstep>
   <time name="dav">   24.76   24.76</time>
   <time name="total">   27.56   27.57</time>
   <dipole>
    <v name="dipole">      0.00000000       0.00000000      -0.51199440 </v>
    <i name="Tr[quadrupol]">  -2631.03829012 </i>
    <i name="Echarged">      0.00000000 </i>
    <i name="Edipol_quadrupol">      0.00000000 </i>
    <i name="Eion">      0.00000000 </i>
   </dipole>
   <energy>
    <i name="e_fr_energy">   -254.69288836 </i>
    <i name="e_wo_entrp">   -254.69989841 </i>
    <i name="e_0_energy">   -254.69522505 </i>
   </energy>
  </scstep>
  <scstep>
   <time name="dav">   22.49   22.49</time>
   <time name="total">   25.26   25.27</time>
   <dipole>
    <v name="dipole">      0.00000000       0.00000000      -0.51197523 </v>
    <i name="Tr[quadrupol]">  -2631.06182065 </i>
    <i name="Echarged">      0.00000000 </i>
    <i name="Edipol_quadrupol">      0.00000000 </i>
    <i name="Eion">      0.00000000 </i>
   </dipole>
   <energy>
    <i name="e_fr_energy">   -254.68643628 </i>
    <i name="e_wo_entrp">   -254.69300083 </i>
    <i name="e_0_energy">   -254.68862447 </i>
   </energy>
  </scstep>
  <scstep>
   <time name="dav">   22.80   22.80</time>
   <time name="total">   25.58   25.59</time>
   <dipole>
    <v name="dipole">      0.00000000       0.00000000      -0.51196310 </v>
    <i name="Tr[quadrupol]">  -2631.10629862 </i>
    <i name="Echarged">      0.00000000 </i>
    <i name="Edipol_quadrupol">      0.00000000 </i>
    <i name="Eion">      0.00000000 </i>
   </dipole>
   <energy>
    <i name="e_fr_energy">   -254.68685078 </i>
    <i name="e_wo_entrp">   -254.69467676 </i>
    <i name="e_0_energy">   -254.68945944 </i>
   </energy>
  </scstep>
  <scstep>
   <time name="dav">   25.57   25.57</time>
   <time name="total">   28.44   28.44</time>
   <dipole>
    <v name="dipole">      0.00000000       0.00000000      -0.51228525 </v>
    <i name="Tr[quadrupol]">  -2631.11117234 </i>
    <i name="Echarged">      0.00000000 </i>
    <i name="Edipol_quadrupol">      0.00000000 </i>
    <i name="Eion">      0.00000000 </i>
   </dipole>
   <energy>
    <i name="e_fr_energy">   -254.71022764 </i>
    <i name="e_wo_entrp">   -254.71869469 </i>
    <i name="e_0_energy">   -254.71304999 </i>
   </energy>
  </scstep>
  <scstep>
   <time name="dav">   25.77   25.77</time>
   <time name="total">   28.63   28.63</time>
   <dipole>
    <v name="dipole">      0.00000000       0.00000000      -0.51366882 </v>
    <i name="Tr[quadrupol]">  -2631.25136509 </i>
    <i name="Echarged">      0.00000000 </i>
    <i name="Edipol_quadrupol">      0.00000000 </i>
    <i name="Eion">      0.00000000 </i>
   </dipole>
   <energy>
    <i name="e_fr_energy">   -254.74954232 </i>
    <i name="e_wo_entrp">   -254.75970684 </i>
    <i name="e_0_energy">   -254.75293050 </i>
   </energy>
  </scstep>
  <scstep>
   <time name="dav">   26.04   26.04</time>
   <time name="total">   28.88   28.88</time>
   <dipole>
    <v name="dipole">      0.00000000       0.00000000      -0.35054747 </v>
    <i name="Tr[quadrupol]">  -2630.81099266 </i>
    <i name="Echarged">      0.00000000 </i>
    <i name="Edipol_quadrupol">      0.00000000 </i>
    <i name="Eion">      0.00000000 </i>
   </dipole>
   <energy>
    <i name="e_fr_energy">   -254.79237366 </i>
    <i name="e_wo_entrp">   -254.80431442 </i>
    <i name="e_0_energy">   -254.79635391 </i>
   </energy>
  </scstep>
  <scstep>
   <time name="dav">   28.65   28.65</time>
   <time name="total">   31.52   31.53</time>
   <dipole>
    <v name="dipole">      0.00000000       0.00000000      -0.28565675 </v>
    <i name="Tr[quadrupol]">  -2630.71792878 </i>
    <i name="Echarged">      0.00000000 </i>
    <i name="Edipol_quadrupol">      0.00000000 </i>
    <i name="Eion">      0.00000000 </i>
   </dipole>
   <energy>
    <i name="e_fr_energy">   -254.76072062 </i>
    <i name="e_wo_entrp">   -254.77011609 </i>
    <i name="e_0_energy">   -254.76385244 </i>
   </energy>
  </scstep>
  <scstep>
   <time name="dav">   26.74   26.74</time>
   <time name="total">   29.54   29.54</time>
   <dipole>
    <v name="dipole">      0.00000000       0.00000000      -0.26023935 </v>
    <i name="Tr[quadrupol]">  -2630.65429489 </i>
    <i name="Echarged">      0.00000000 </i>
    <i name="Edipol_quadrupol">      0.00000000 </i>
    <i name="Eion">      0.00000000 </i>
   </dipole>
   <energy>
    <i name="e_fr_energy">   -254.72582751 </i>
    <i name="e_wo_entrp">   -254.73332030 </i>
    <i name="e_0_energy">   -254.72832511 </i>
   </energy>
  </scstep>
  <scstep>
   <time name="dav">   25.75   25.75</time>
   <time name="total">   28.63   28.63</time>
   <dipole>
    <v name="dipole">      0.00000000       0.00000000      -0.24424617 </v>
    <i name="Tr[quadrupol]">  -2630.72195105 </i>
    <i name="Echarged">      0.00000000 </i>
    <i name="Edipol_quadrupol">      0.00000000 </i>
    <i name="Eion">      0.00000000 </i>
   </dipole>
   <energy>
    <i name="e_fr_energy">   -254.74473213 </i>
    <i name="e_wo_entrp">   -254.75601087 </i>
    <i name="e_0_energy">   -254.74849171 </i>
   </energy>
  </scstep>
  <scstep>
   <time name="dav">   27.40   27.48</time>
   <time name="total">   30.25   30.33</time>
   <dipole>
    <v name="dipole">      0.00000000       0.00000000      -0.22819929 </v>
    <i name="Tr[quadrupol]">  -2630.66483947 </i>
    <i name="Echarged">      0.00000000 </i>
    <i name="Edipol_quadrupol">      0.00000000 </i>
    <i name="Eion">      0.00000000 </i>
   </dipole>
   <energy>
    <i name="e_fr_energy">   -254.74681098 </i>
    <i name="e_wo_entrp">   -254.75835912 </i>
    <i name="e_0_energy">   -254.75066036 </i>
   </energy>
  </scstep>
  <scstep>
   <time name="dav">   20.50   20.50</time>
   <time name="total">   23.39   23.40</time>
   <dipole>
    <v name="dipole">      0.00000000       0.00000000      -0.23342355 </v>
    <i name="Tr[quadrupol]">  -2630.67495279 </i>
    <i name="Echarged">      0.00000000 </i>
    <i name="Edipol_quadrupol">      0.00000000 </i>
    <i name="Eion">      0.00000000 </i>
   </dipole>
   <energy>
    <i name="e_fr_energy">   -254.74387779 </i>
    <i name="e_wo_entrp">   -254.75518089 </i>
    <i name="e_0_energy">   -254.74764549 </i>
   </energy>
  </scstep>
  <scstep>
   <time name="dav">   25.42   25.42</time>
   <time name="total">   28.38   28.38</time>
   <dipole>
    <v name="dipole">      0.00000000       0.00000000      -0.23003131 </v>
    <i name="Tr[quadrupol]">  -2630.71738957 </i>
    <i name="Echarged">      0.00000000 </i>
    <i name="Edipol_quadrupol">      0.00000000 </i>
    <i name="Eion">      0.00000000 </i>
   </dipole>
   <energy>
    <i name="e_fr_energy">   -254.78494244 </i>
    <i name="e_wo_entrp">   -254.79618622 </i>
    <i name="e_0_energy">   -254.78869036 </i>
   </energy>
  </scstep>
  <scstep>
   <time name="dav">   26.27   26.27</time>
   <time name="total">   29.18   29.19</time>
   <dipole>
    <v name="dipole">      0.00000000       0.00000000      -0.25429776 </v>
    <i name="Tr[quadrupol]">  -2630.86528956 </i>
    <i name="Echarged">      0.00000000 </i>
    <i name="Edipol_quadrupol">      0.00000000 </i>
    <i name="Eion">      0.00000000 </i>
   </dipole>
   <energy>
    <i name="e_fr_energy">   -254.81485995 </i>
    <i name="e_wo_entrp">   -254.82109881 </i>
    <i name="e_0_energy">   -254.81693957 </i>
   </energy>
  </scstep>
  <scstep>
   <time name="dav">   27.41   27.41</time>
   <time name="total">   30.23   30.24</time>
   <dipole>
    <v name="dipole">      0.00000000       0.00000000      -0.55119110 </v>
    <i name="Tr[quadrupol]">  -2632.96427958 </i>
    <i name="Echarged">      0.00000000 </i>
    <i name="Edipol_quadrupol">      0.00000000 </i>
    <i name="Eion">      0.00000000 </i>
   </dipole>
   <energy>
    <i name="e_fr_energy">   -254.46613472 </i>
    <i name="e_wo_entrp">   -254.46959152 </i>
    <i name="e_0_energy">   -254.46728699 </i>
   </energy>
  </scstep>
  <scstep>
   <time name="dav">   27.23   27.23</time>
   <time name="total">   30.10   30.18</time>
   <dipole>
    <v name="dipole">      0.00000000       0.00000000      -0.54132748 </v>
    <i name="Tr[quadrupol]">  -2633.52056473 </i>
    <i name="Echarged">      0.00000000 </i>
    <i name="Edipol_quadrupol">      0.00000000 </i>
    <i name="Eion">      0.00000000 </i>
   </dipole>
   <energy>
    <i name="e_fr_energy">   -254.46927544 </i>
    <i name="e_wo_entrp">   -254.46375415 </i>
    <i name="e_0_energy">   -254.46743501 </i>
   </energy>
  </scstep>
  <scstep>
   <time name="dav">   27.99   27.99</time>
   <time name="total">   30.89   30.89</time>
   <dipole>
    <v name="dipole">      0.00000000       0.00000000      -0.54404936 </v>
    <i name="Tr[quadrupol]">  -2633.62404434 </i>
    <i name="Echarged">      0.00000000 </i>
    <i name="Edipol_quadrupol">      0.00000000 </i>
    <i name="Eion">      0.00000000 </i>
   </dipole>
   <energy>
    <i name="e_fr_energy">   -254.51574491 </i>
    <i name="e_wo_entrp">   -254.51831149 </i>
    <i name="e_0_energy">   -254.51660044 </i>
   </energy>
  </scstep>
  <scstep>
   <time name="dav">   26.74   26.74</time>
   <time name="total">   29.63   29.63</time>
   <dipole>
    <v name="dipole">      0.00000000       0.00000000      -0.54505129 </v>
    <i name="Tr[quadrupol]">  -2633.75546740 </i>
    <i name="Echarged">      0.00000000 </i>
    <i name="Edipol_quadrupol">      0.00000000 </i>
    <i name="Eion">      0.00000000 </i>
   </dipole>
   <energy>
    <i name="e_fr_energy">   -254.50746820 </i>
    <i name="e_wo_entrp">   -254.51204492 </i>
    <i name="e_0_energy">   -254.50899377 </i>
   </energy>
  </scstep>
  <scstep>
   <time name="dav">   27.71   27.83</time>
   <time name="total">   30.58   30.71</time>
   <dipole>
    <v name="dipole">      0.00000000       0.00000000      -0.54475741 </v>
    <i name="Tr[quadrupol]">  -2633.77629975 </i>
    <i name="Echarged">      0.00000000 </i>
    <i name="Edipol_quadrupol">      0.00000000 </i>
    <i name="Eion">      0.00000000 </i>
   </dipole>
   <energy>
    <i name="e_fr_energy">   -254.50920815 </i>
    <i name="e_wo_entrp">   -254.51888749 </i>
    <i name="e_0_energy">   -254.51243459 </i>
   </energy>
  </scstep>
  <scstep>
   <time name="dav">   28.80   28.87</time>
   <time name="total">   31.60   31.67</time>
   <dipole>
    <v name="dipole">      0.00000000       0.00000000      -0.53652700 </v>
    <i name="Tr[quadrupol]">  -2633.92067633 </i>
    <i name="Echarged">      0.00000000 </i>
    <i name="Edipol_quadrupol">      0.00000000 </i>
    <i name="Eion">      0.00000000 </i>
   </dipole>
   <energy>
    <i name="e_fr_energy">   -254.44955602 </i>
    <i name="e_wo_entrp">   -254.44232520 </i>
    <i name="e_0_energy">   -254.44714575 </i>
   </energy>
  </scstep>
  <scstep>
   <time name="dav">   26.37   26.37</time>
   <time name="total">   29.25   29.25</time>
   <dipole>
    <v name="dipole">      0.00000000       0.00000000      -0.54270976 </v>
    <i name="Tr[quadrupol]">  -2633.87321478 </i>
    <i name="Echarged">      0.00000000 </i>
    <i name="Edipol_quadrupol">      0.00000000 </i>
    <i name="Eion">      0.00000000 </i>
   </dipole>
   <energy>
    <i name="e_fr_energy">   -254.45551502 </i>
    <i name="e_wo_entrp">   -254.44982335 </i>
    <i name="e_0_energy">   -254.45361780 </i>
   </energy>
  </scstep>
  <scstep>
   <time name="dav">   27.29   27.37</time>
   <time name="total">   30.12   30.20</time>
   <dipole>
    <v name="dipole">      0.00000000       0.00000000      -0.53577687 </v>
    <i name="Tr[quadrupol]">  -2633.83196908 </i>
    <i name="Echarged">      0.00000000 </i>
    <i name="Edipol_quadrupol">      0.00000000 </i>
    <i name="Eion">      0.00000000 </i>
   </dipole>
   <energy>
    <i name="e_fr_energy">   -254.51096525 </i>
    <i name="e_wo_entrp">   -254.50196455 </i>
    <i name="e_0_energy">   -254.50796502 </i>
   </energy>
  </scstep>
  <scstep>
   <time name="dav">   26.95   27.02</time>
   <time name="total">   29.81   29.88</time>
   <dipole>
    <v name="dipole">      0.00000000       0.00000000      -0.52934765 </v>
    <i name="Tr[quadrupol]">  -2633.85985998 </i>
    <i name="Echarged">      0.00000000 </i>
    <i name="Edipol_quadrupol">      0.00000000 </i>
    <i name="Eion">      0.00000000 </i>
   </dipole>
   <energy>
    <i name="e_fr_energy">   -254.64690831 </i>
    <i name="e_wo_entrp">   -254.63573619 </i>
    <i name="e_0_energy">   -254.64318427 </i>
   </energy>
  </scstep>
  <scstep>
   <time name="dav">   27.51   27.51</time>
   <time name="total">   28.61   28.61</time>
   <dipole>
    <v name="dipole">      0.00000000       0.00000000      -0.51502963 </v>
    <i name="Tr[quadrupol]">  -2633.80849472 </i>
    <i name="Echarged">      0.00000000 </i>
    <i name="Edipol_quadrupol">      0.00000000 </i>
    <i name="Eion">      0.00000000 </i>
   </dipole>
   <energy>
    <i name="alphaZ">     66.48214958 </i>
    <i name="ewald">   8382.25343433 </i>
    <i name="hartreedc"> -11364.23179007 </i>
    <i name="XCdc">    288.49477843 </i>
    <i name="pawpsdc">  11226.25814819 </i>
    <i name="pawaedc"> -11202.81594758 </i>
    <i name="eentropy">     -0.01099741 </i>
    <i name="bandstr">  -1092.22893159 </i>
    <i name="atom">   3441.07734177 </i>
    <i name="e_fr_energy">   -254.72181436 </i>
    <i name="e_wo_entrp">   -254.71081695 </i>
    <i name="e_0_energy">   -254.71814855 </i>
   </energy>
  </scstep>
  <structure>
   <crystal>
    <varray name="basis" >
     <v>      10.16000000       0.00000000       0.00000000 </v>
     <v>       0.00000000      11.76000000       0.00000000 </v>
     <v>       0.00000000       0.00000000      15.00000000 </v>
    </varray>
    <i name="volume">   1792.22400000 </i>
    <varray name="rec_basis" >
     <v>       0.09842520       0.00000000       0.00000000 </v>
     <v>       0.00000000       0.08503401       0.00000000 </v>
     <v>       0.00000000       0.00000000       0.06666667 </v>
    </varray>
   </crystal>
   <varray name="positions" >
    <v>       0.99811000       0.00000000       0.00000000 </v>
    <v>       0.16667000       0.00000000       0.00000000 </v>
    <v>       0.33522000       0.00000000       0.00000000 </v>
    <v>       0.08000000       0.12500000       0.00000000 </v>
    <v>       0.25334000       0.12500000       0.00000000 </v>
    <v>       0.99811000       0.25000000       0.00000000 </v>
    <v>       0.16667000       0.25000000       0.00000000 </v>
    <v>       0.33522000       0.25000000       0.00000000 </v>
    <v>       0.08000000       0.37500000       0.00000000 </v>
    <v>       0.25334000       0.37500000       0.00000000 </v>
    <v>       0.99811000       0.50000000       0.00000000 </v>
    <v>       0.16667000       0.50000000       0.00000000 </v>
    <v>       0.33522000       0.50000000       0.00000000 </v>
    <v>       0.08000000       0.62500000       0.00000000 </v>
    <v>       0.25334000       0.62500000       0.00000000 </v>
    <v>       0.99811000       0.75000000       0.00000000 </v>
    <v>       0.16667000       0.75000000       0.00000000 </v>
    <v>       0.33522000       0.75000000       0.00000000 </v>
    <v>       0.08000000       0.87500000       0.00000000 </v>
    <v>       0.25334000       0.87500000       0.00000000 </v>
    <v>       0.49811000       0.00000000       0.00000000 </v>
    <v>       0.66667000       0.00000000       0.00000000 </v>
    <v>       0.83522000       0.00000000       0.00000000 </v>
    <v>       0.58000000       0.12500000       0.00000000 </v>
    <v>       0.75334000       0.12500000       0.00000000 </v>
    <v>       0.49811000       0.25000000       0.00000000 </v>
    <v>       0.66667000       0.25000000       0.00000000 </v>
    <v>       0.83522000       0.25000000       0.00000000 </v>
    <v>       0.58000000       0.37500000       0.00000000 </v>
    <v>       0.75334000       0.37500000       0.00000000 </v>
    <v>       0.49811000       0.50000000       0.00000000 </v>
    <v>       0.66667000       0.50000000       0.00000000 </v>
    <v>       0.83522000       0.50000000       0.00000000 </v>
    <v>       0.58000000       0.62500000       0.00000000 </v>
    <v>       0.75334000       0.62500000       0.00000000 </v>
    <v>       0.49811000       0.75000000       0.00000000 </v>
    <v>       0.66667000       0.75000000       0.00000000 </v>
    <v>       0.83522000       0.75000000       0.00000000 </v>
    <v>       0.58000000       0.87500000       0.00000000 </v>
    <v>       0.75334000       0.87500000       0.00000000 </v>
    <v>       0.41667000       0.12500000       0.13333000 </v>
   </varray>
  </structure>
  <varray name="forces" >
   <v>       0.20792443      -0.06811223      -0.03654871 </v>
   <v>      -0.44362283      -0.17659077      -0.02893588 </v>
   <v>       0.26181436       0.13748718       0.47082210 </v>
   <v>       0.04307880       0.00000000       0.10759951 </v>
   <v>       0.19679943       0.00000000       0.53305765 </v>
   <v>       0.20792443       0.06811223      -0.03654871 </v>
   <v>      -0.44362283       0.17659077      -0.02893588 </v>
   <v>       0.26181436      -0.13748718       0.47082210 </v>
   <v>       0.14786820      -0.20705082      -0.05484942 </v>
   <v>      -0.13066183       0.11884282       0.11671395 </v>
   <v>       0.00034160       0.06869056      -0.01488519 </v>
   <v>       0.00910591       0.06130968       0.00908551 </v>
   <v>       0.01302214      -0.02392790       0.01295850 </v>
   <v>       0.09132495       0.00000000       0.04944740 </v>
   <v>      -0.11898545       0.00000000       0.02837705 </v>
   <v>       0.00034160      -0.06869056      -0.01488519 </v>
   <v>       0.00910591      -0.06130968       0.00908551 </v>
   <v>       0.01302214       0.02392790       0.01295850 </v>
   <v>       0.14786820       0.20705082      -0.05484942 </v>
   <v>      -0.13066183      -0.11884282       0.11671395 </v>
   <v>      -0.27153375       0.18707234       0.41083406 </v>
   <v>       0.44597435      -0.19150142      -0.03685280 </v>
   <v>      -0.21739679       0.01235647       0.01858867 </v>
   <v>      -0.28923500       0.00000000       0.58331061 </v>
   <v>       0.01736943       0.00000000       0.16701966 </v>
   <v>      -0.27153375      -0.18707234       0.41083406 </v>
   <v>       0.44597435       0.19150142      -0.03685280 </v>
   <v>      -0.21739679      -0.01235647       0.01858867 </v>
   <v>       0.16832587       0.09755475       0.08728741 </v>
   <v>      -0.21431971      -0.20192492      -0.03598906 </v>
   <v>      -0.00936565       0.00306609      -0.00307656 </v>
   <v>      -0.01318433       0.09447281       0.01328637 </v>
   <v>      -0.00299408       0.09081938      -0.00114903 </v>
   <v>       0.13911976       0.00000000       0.02888076 </v>
   <v>      -0.12176297       0.00000000       0.04930777 </v>
   <v>      -0.00936565      -0.00306609      -0.00307656 </v>
   <v>      -0.01318433      -0.09447281       0.01328637 </v>
   <v>      -0.00299408      -0.09081938      -0.00114903 </v>
   <v>       0.16832587      -0.09755475       0.08728741 </v>
   <v>      -0.21431971       0.20192492      -0.03598906 </v>
   <v>       0.13969530       0.00000000      -3.40158026 </v>
  </varray>
  <varray name="stress" >
   <v>     -14.47595628       0.00000000       0.63853077 </v>
   <v>       0.00000000     -14.79415761       0.00000000 </v>
   <v>       0.63853076       0.00000000     -10.37079389 </v>
  </varray>
  <energy>
   <i name="e_fr_energy">   -254.72181436 </i>
   <i name="e_wo_entrp">   -254.71814855 </i>
   <i name="e_0_energy">     -0.01099741 </i>
  </energy>
  <time name="totalsc"> 1786.02 1786.84</time>
 </calculation>
 <calculation>
  <scstep>
   <time name="dav">   22.18   22.18</time>
   <time name="total">   24.84   24.84</time>
   <dipole>
    <v name="dipole">      0.00000000       0.00000000      -0.51331647 </v>
    <i name="Tr[quadrupol]">  -2632.61283299 </i>
    <i name="Echarged">      0.00000000 </i>
    <i name="Edipol_quadrupol">      0.00000000 </i>
    <i name="Eion">      0.00000000 </i>
   </dipole>
   <energy>
    <i name="alphaZ">     66.45634413 </i>
    <i name="ewald">   8473.97493598 </i>
    <i name="hartreedc"> -11455.54087977 </i>
    <i name="XCdc">    289.51936448 </i>
    <i name="pawpsdc">  11221.75926504 </i>
    <i name="pawaedc"> -11198.20659382 </i>
    <i name="eentropy">      0.01262695 </i>
    <i name="bandstr">  -1093.36607042 </i>
    <i name="atom">   3441.07734177 </i>
    <i name="e_fr_energy">   -254.31366566 </i>
    <i name="e_wo_entrp">   -254.32629261 </i>
    <i name="e_0_energy">   -254.31787464 </i>
   </energy>
  </scstep>
  <scstep>
   <time name="dav">   28.69   28.69</time>
   <time name="total">   31.34   31.34</time>
   <dipole>
    <v name="dipole">      0.00000000       0.00000000      -0.64737315 </v>
    <i name="Tr[quadrupol]">  -2632.55655825 </i>
    <i name="Echarged">      0.00000000 </i>
    <i name="Edipol_quadrupol">      0.00000000 </i>
    <i name="Eion">      0.00000000 </i>
   </dipole>
   <energy>
    <i name="e_fr_energy">   -268.92762095 </i>
    <i name="e_wo_entrp">   -268.91622323 </i>
    <i name="e_0_energy">   -268.92382171 </i>
   </energy>
  </scstep>
  <scstep>
   <time name="dav">   25.66   25.66</time>
   <time name="total">   28.34   28.34</time>
   <dipole>
    <v name="dipole">      0.00000000       0.00000000      -0.54206001 </v>
    <i name="Tr[quadrupol]">  -2632.56394773 </i>
    <i name="Echarged">      0.00000000 </i>
    <i name="Edipol_quadrupol">      0.00000000 </i>
    <i name="Eion">      0.00000000 </i>
   </dipole>
   <energy>
    <i name="e_fr_energy">   -256.45663123 </i>
    <i name="e_wo_entrp">   -256.45500183 </i>
    <i name="e_0_energy">   -256.45608810 </i>
   </energy>
  </scstep>
  <scstep>
   <time name="dav">   29.79   29.79</time>
   <time name="total">   32.44   32.44</time>
   <dipole>
    <v name="dipole">      0.00000000       0.00000000      -0.49674071 </v>
    <i name="Tr[quadrupol]">  -2632.66178113 </i>
    <i name="Echarged">      0.00000000 </i>
    <i name="Edipol_quadrupol">      0.00000000 </i>
    <i name="Eion">      0.00000000 </i>
   </dipole>
   <energy>
    <i name="e_fr_energy">   -255.73827024 </i>
    <i name="e_wo_entrp">   -255.72846126 </i>
    <i name="e_0_energy">   -255.73500058 </i>
   </energy>
  </scstep>
  <scstep>
   <time name="dav">   28.09   28.09</time>
   <time name="total">   30.76   30.76</time>
   <dipole>
    <v name="dipole">      0.00000000       0.00000000      -0.51880301 </v>
    <i name="Tr[quadrupol]">  -2632.64285472 </i>
    <i name="Echarged">      0.00000000 </i>
    <i name="Edipol_quadrupol">      0.00000000 </i>
    <i name="Eion">      0.00000000 </i>
   </dipole>
   <energy>
    <i name="e_fr_energy">   -255.36586054 </i>
    <i name="e_wo_entrp">   -255.36784361 </i>
    <i name="e_0_energy">   -255.36652156 </i>
   </energy>
  </scstep>
  <scstep>
   <time name="dav">   27.89   27.89</time>
   <time name="total">   30.58   30.58</time>
   <dipole>
    <v name="dipole">      0.00000000       0.00000000      -0.51603174 </v>
    <i name="Tr[quadrupol]">  -2632.62954090 </i>
    <i name="Echarged">      0.00000000 </i>
    <i name="Edipol_quadrupol">      0.00000000 </i>
    <i name="Eion">      0.00000000 </i>
   </dipole>
   <energy>
    <i name="e_fr_energy">   -255.41189050 </i>
    <i name="e_wo_entrp">   -255.41565709 </i>
    <i name="e_0_energy">   -255.41314603 </i>
   </energy>
  </scstep>
  <scstep>
   <time name="dav">   26.34   26.34</time>
   <time name="total">   29.04   29.05</time>
   <dipole>
    <v name="dipole">      0.00000000       0.00000000      -0.51585608 </v>
    <i name="Tr[quadrupol]">  -2632.63136478 </i>
    <i name="Echarged">      0.00000000 </i>
    <i name="Edipol_quadrupol">      0.00000000 </i>
    <i name="Eion">      0.00000000 </i>
   </dipole>
   <energy>
    <i name="e_fr_energy">   -255.39992969 </i>
    <i name="e_wo_entrp">   -255.40347313 </i>
    <i name="e_0_energy">   -255.40111083 </i>
   </energy>
  </scstep>
  <scstep>
   <time name="dav">   27.81   27.82</time>
   <time name="total">   30.52   30.54</time>
   <dipole>
    <v name="dipole">      0.00000000       0.00000000      -0.51291807 </v>
    <i name="Tr[quadrupol]">  -2632.70870083 </i>
    <i name="Echarged">      0.00000000 </i>
    <i name="Edipol_quadrupol">      0.00000000 </i>
    <i name="Eion">      0.00000000 </i>
   </dipole>
   <energy>
    <i name="e_fr_energy">   -255.37505120 </i>
    <i name="e_wo_entrp">   -255.37460820 </i>
    <i name="e_0_energy">   -255.37490354 </i>
   </energy>
  </scstep>
  <scstep>
   <time name="dav">   28.03   28.03</time>
   <time name="total">   30.69   30.69</time>
   <dipole>
    <v name="dipole">      0.00000000       0.00000000      -0.51008940 </v>
    <i name="Tr[quadrupol]">  -2632.65669635 </i>
    <i name="Echarged">      0.00000000 </i>
    <i name="Edipol_quadrupol">      0.00000000 </i>
    <i name="Eion">      0.00000000 </i>
   </dipole>
   <energy>
    <i name="e_fr_energy">   -255.38421804 </i>
    <i name="e_wo_entrp">   -255.38273244 </i>
    <i name="e_0_energy">   -255.38372284 </i>
   </energy>
  </scstep>
  <scstep>
   <time name="dav">   27.50   27.50</time>
   <time name="total">   30.21   30.21</time>
   <dipole>
    <v name="dipole">      0.00000000       0.00000000      -0.50665187 </v>
    <i name="Tr[quadrupol]">  -2632.59666025 </i>
    <i name="Echarged">      0.00000000 </i>
    <i name="Edipol_quadrupol">      0.00000000 </i>
    <i name="Eion">      0.00000000 </i>
   </dipole>
   <energy>
    <i name="e_fr_energy">   -255.40860241 </i>
    <i name="e_wo_entrp">   -255.40961182 </i>
    <i name="e_0_energy">   -255.40893888 </i>
   </energy>
  </scstep>
  <scstep>
   <time name="dav">   26.75   26.75</time>
   <time name="total">   29.46   29.47</time>
   <dipole>
    <v name="dipole">      0.00000000       0.00000000      -0.50352161 </v>
    <i name="Tr[quadrupol]">  -2632.62282896 </i>
    <i name="Echarged">      0.00000000 </i>
    <i name="Edipol_quadrupol">      0.00000000 </i>
    <i name="Eion">      0.00000000 </i>
   </dipole>
   <energy>
    <i name="e_fr_energy">   -255.42131304 </i>
    <i name="e_wo_entrp">   -255.42417593 </i>
    <i name="e_0_energy">   -255.42226733 </i>
   </energy>
  </scstep>
  <scstep>
   <time name="dav">   28.03   28.03</time>
   <time name="total">   30.67   30.68</time>
   <dipole>
    <v name="dipole">      0.00000000       0.00000000      -0.49951376 </v>
    <i name="Tr[quadrupol]">  -2632.62209710 </i>
    <i name="Echarged">      0.00000000 </i>
    <i name="Edipol_quadrupol">      0.00000000 </i>
    <i name="Eion">      0.00000000 </i>
   </dipole>
   <energy>
    <i name="e_fr_energy">   -255.43099800 </i>
    <i name="e_wo_entrp">   -255.43501097 </i>
    <i name="e_0_energy">   -255.43233566 </i>
   </energy>
  </scstep>
  <scstep>
   <time name="dav">   27.56   27.56</time>
   <time name="total">   30.24   30.24</time>
   <dipole>
    <v name="dipole">      0.00000000       0.00000000      -0.49656685 </v>
    <i name="Tr[quadrupol]">  -2632.56243961 </i>
    <i name="Echarged">      0.00000000 </i>
    <i name="Edipol_quadrupol">      0.00000000 </i>
    <i name="Eion">      0.00000000 </i>
   </dipole>
   <energy>
    <i name="e_fr_energy">   -255.43535247 </i>
    <i name="e_wo_entrp">   -255.43998812 </i>
    <i name="e_0_energy">   -255.43689768 </i>
   </energy>
  </scstep>
  <scstep>
   <time name="dav">   25.23   25.23</time>
   <time name="total">   27.94   27.94</time>
   <dipole>
    <v name="dipole">      0.00000000       0.00000000      -0.49249682 </v>
    <i name="Tr[quadrupol]">  -2632.49630368 </i>
    <i name="Echarged">      0.00000000 </i>
    <i name="Edipol_quadrupol">      0.00000000 </i>
    <i name="Eion">      0.00000000 </i>
   </dipole>
   <energy>
    <i name="e_fr_energy">   -255.43678293 </i>
    <i name="e_wo_entrp">   -255.44121431 </i>
    <i name="e_0_energy">   -255.43826006 </i>
   </energy>
  </scstep>
  <scstep>
   <time name="dav">   22.19   22.27</time>
   <time name="total">   24.91   25.00</time>
   <dipole>
    <v name="dipole">      0.00000000       0.00000000      -0.49818445 </v>
    <i name="Tr[quadrupol]">  -2631.83468281 </i>
    <i name="Echarged">      0.00000000 </i>
    <i name="Edipol_quadrupol">      0.00000000 </i>
    <i name="Eion">      0.00000000 </i>
   </dipole>
   <energy>
    <i name="e_fr_energy">   -255.43846499 </i>
    <i name="e_wo_entrp">   -255.44366623 </i>
    <i name="e_0_energy">   -255.44019874 </i>
   </energy>
  </scstep>
  <scstep>
   <time name="dav">   19.12   19.12</time>
   <time name="total">   21.77   21.78</time>
   <dipole>
    <v name="dipole">      0.00000000       0.00000000      -0.50136253 </v>
    <i name="Tr[quadrupol]">  -2631.56120157 </i>
    <i name="Echarged">      0.00000000 </i>
    <i name="Edipol_quadrupol">      0.00000000 </i>
    <i name="Eion">      0.00000000 </i>
   </dipole>
   <energy>
    <i name="e_fr_energy">   -255.43896860 </i>
    <i name="e_wo_entrp">   -255.44441024 </i>
    <i name="e_0_energy">   -255.44078248 </i>
   </energy>
  </scstep>
  <scstep>
   <time name="dav">   18.44   18.44</time>
   <time name="total">   21.08   21.08</time>
   <dipole>
    <v name="dipole">      0.00000000       0.00000000      -0.50378100 </v>
    <i name="Tr[quadrupol]">  -2631.37207680 </i>
    <i name="Echarged">      0.00000000 </i>
    <i name="Edipol_quadrupol">      0.00000000 </i>
    <i name="Eion">      0.00000000 </i>
   </dipole>
   <energy>
    <i name="e_fr_energy">   -255.43829086 </i>
    <i name="e_wo_entrp">   -255.44352315 </i>
    <i name="e_0_energy">   -255.44003496 </i>
   </energy>
  </scstep>
  <scstep>
   <time name="dav">   17.70   17.70</time>
   <time name="total">   20.41   20.42</time>
   <dipole>
    <v name="dipole">      0.00000000       0.00000000      -0.50523162 </v>
    <i name="Tr[quadrupol]">  -2631.28497856 </i>
    <i name="Echarged">      0.00000000 </i>
    <i name="Edipol_quadrupol">      0.00000000 </i>
    <i name="Eion">      0.00000000 </i>
   </dipole>
   <energy>
    <i name="e_fr_energy">   -255.43861428 </i>
    <i name="e_wo_entrp">   -255.44404655 </i>
    <i name="e_0_energy">   -255.44042504 </i>
   </energy>
  </scstep>
  <scstep>
   <time name="dav">   20.85   20.85</time>
   <time name="total">   23.57   23.57</time>
   <dipole>
    <v name="dipole">      0.00000000       0.00000000      -0.50549133 </v>
    <i name="Tr[quadrupol]">  -2631.29925666 </i>
    <i name="Echarged">      0.00000000 </i>
    <i name="Edipol_quadrupol">      0.00000000 </i>
    <i name="Eion">      0.00000000 </i>
   </dipole>
   <energy>
    <i name="e_fr_energy">   -255.43892392 </i>
    <i name="e_wo_entrp">   -255.44504743 </i>
    <i name="e_0_energy">   -255.44096509 </i>
   </energy>
  </scstep>
  <scstep>
   <time name="dav">   18.54   18.54</time>
   <time name="total">   21.27   21.28</time>
   <dipole>
    <v name="dipole">      0.00000000       0.00000000      -0.50583878 </v>
    <i name="Tr[quadrupol]">  -2631.29733749 </i>
    <i name="Echarged">      0.00000000 </i>
    <i name="Edipol_quadrupol">      0.00000000 </i>
    <i name="Eion">      0.00000000 </i>
   </dipole>
   <energy>
    <i name="e_fr_energy">   -255.43849458 </i>
    <i name="e_wo_entrp">   -255.44430922 </i>
    <i name="e_0_energy">   -255.44043279 </i>
   </energy>
  </scstep>
  <scstep>
   <time name="dav">   20.15   20.15</time>
   <time name="total">   22.79   22.80</time>
   <dipole>
    <v name="dipole">      0.00000000       0.00000000      -0.50229214 </v>
    <i name="Tr[quadrupol]">  -2631.26693702 </i>
    <i name="Echarged">      0.00000000 </i>
    <i name="Edipol_quadrupol">      0.00000000 </i>
    <i name="Eion">      0.00000000 </i>
   </dipole>
   <energy>
    <i name="e_fr_energy">   -255.43955223 </i>
    <i name="e_wo_entrp">   -255.44570370 </i>
    <i name="e_0_energy">   -255.44160272 </i>
   </energy>
  </scstep>
  <scstep>
   <time name="dav">   25.44   25.53</time>
   <time name="total">   28.12   28.21</time>
   <dipole>
    <v name="dipole">      0.00000000       0.00000000      -0.49754919 </v>
    <i name="Tr[quadrupol]">  -2631.24530071 </i>
    <i name="Echarged">      0.00000000 </i>
    <i name="Edipol_quadrupol">      0.00000000 </i>
    <i name="Eion">      0.00000000 </i>
   </dipole>
   <energy>
    <i name="e_fr_energy">   -255.44031452 </i>
    <i name="e_wo_entrp">   -255.44772975 </i>
    <i name="e_0_energy">   -255.44278627 </i>
   </energy>
  </scstep>
  <scstep>
   <time name="dav">   23.23   23.23</time>
   <time name="total">   25.96   25.96</time>
   <dipole>
    <v name="dipole">      0.00000000       0.00000000      -0.49272450 </v>
    <i name="Tr[quadrupol]">  -2631.30751833 </i>
    <i name="Echarged">      0.00000000 </i>
    <i name="Edipol_quadrupol">      0.00000000 </i>
    <i name="Eion">      0.00000000 </i>
   </dipole>
   <energy>
    <i name="e_fr_energy">   -255.44064821 </i>
    <i name="e_wo_entrp">   -255.44903064 </i>
    <i name="e_0_energy">   -255.44344235 </i>
   </energy>
  </scstep>
  <scstep>
   <time name="dav">   19.77   19.77</time>
   <time name="total">   22.54   22.55</time>
   <dipole>
    <v name="dipole">      0.00000000       0.00000000      -0.49261122 </v>
    <i name="Tr[quadrupol]">  -2631.30094372 </i>
    <i name="Echarged">      0.00000000 </i>
    <i name="Edipol_quadrupol">      0.00000000 </i>
    <i name="Eion">      0.00000000 </i>
   </dipole>
   <energy>
    <i name="e_fr_energy">   -255.44126588 </i>
    <i name="e_wo_entrp">   -255.44985915 </i>
    <i name="e_0_energy">   -255.44413031 </i>
   </energy>
  </scstep>
  <scstep>
   <time name="dav">   17.84   17.84</time>
   <time name="total">   18.93   18.93</time>
   <dipole>
    <v name="dipole">      0.00000000       0.00000000      -0.49266368 </v>
    <i name="Tr[quadrupol]">  -2631.29802461 </i>
    <i name="Echarged">      0.00000000 </i>
    <i name="Edipol_quadrupol">      0.00000000 </i>
    <i name="Eion">      0.00000000 </i>
   </dipole>
   <energy>
    <i name="alphaZ">     62.05301423 </i>
    <i name="ewald">   8473.97493598 </i>
    <i name="hartreedc"> -11446.53290665 </i>
    <i name="XCdc">    288.47704713 </i>
    <i name="pawpsdc">  11277.16200099 </i>
    <i name="pawaedc"> -11253.72615299 </i>
    <i name="eentropy">      0.00873058 </i>
    <i name="bandstr">  -1097.93536274 </i>
    <i name="atom">   3441.07734177 </i>
    <i name="e_fr_energy">   -255.44135171 </i>
    <i name="e_wo_entrp">   -255.45008228 </i>
    <i name="e_0_energy">   -255.44426190 </i>
   </energy>
  </scstep>
  <structure>
   <crystal>
    <varray name="basis" >
     <v>      10.16000000       0.00000000       0.00000000 </v>
     <v>       0.00000000      11.76000000       0.00000000 </v>
     <v>       0.00000000       0.00000000      15.00000000 </v>
    </varray>
    <i name="volume">   1792.22400000 </i>
    <varray name="rec_basis" >
     <v>       0.09842520       0.00000000       0.00000000 </v>
     <v>       0.00000000       0.08503401       0.00000000 </v>
     <v>       0.00000000       0.00000000       0.06666667 </v>
    </varray>
   </crystal>
   <varray name="positions" >
    <v>       0.99909729      -0.00027941      -0.00011755 </v>
    <v>       0.16456355      -0.00072442      -0.00009306 </v>
    <v>       0.33646317       0.00056401       0.00151425 </v>
    <v>       0.08020455       0.12500000       0.00034606 </v>
    <v>       0.25427446       0.12500000       0.00171441 </v>
    <v>       0.99909729       0.25027941      -0.00011755 </v>
    <v>       0.16456355       0.25072442      -0.00009306 </v>
    <v>       0.33646317       0.24943599       0.00151425 </v>
    <v>       0.08070212       0.37415062      -0.00017641 </v>
    <v>       0.25271958       0.37548752       0.00037537 </v>
    <v>       0.99811162       0.50028179      -0.00004787 </v>
    <v>       0.16671324       0.50025151       0.00002922 </v>
    <v>       0.33528183       0.49990184       0.00004168 </v>
    <v>       0.08043364       0.62500000       0.00015903 </v>
    <v>       0.25277502       0.62500000       0.00009127 </v>
    <v>       0.99811162       0.74971821      -0.00004787 </v>
    <v>       0.16671324       0.74974849       0.00002922 </v>
    <v>       0.33528183       0.75009816       0.00004168 </v>
    <v>       0.08070212       0.87584938      -0.00017641 </v>
    <v>       0.25271958       0.87451248       0.00037537 </v>
    <v>       0.49682068       0.00076742       0.00132132 </v>
    <v>       0.66878762      -0.00078559      -0.00011853 </v>
    <v>       0.83418774       0.00005069       0.00005978 </v>
    <v>       0.57862663       0.12500000       0.00187603 </v>
    <v>       0.75342248       0.12500000       0.00053716 </v>
    <v>       0.49682068       0.24923258       0.00132132 </v>
    <v>       0.66878762       0.25078559      -0.00011853 </v>
    <v>       0.83418774       0.24994931       0.00005978 </v>
    <v>       0.58079926       0.37540020       0.00028073 </v>
    <v>       0.75232235       0.37417165      -0.00011575 </v>
    <v>       0.49806553       0.50001258      -0.00000989 </v>
    <v>       0.66660740       0.50038755       0.00004273 </v>
    <v>       0.83520578       0.50037257      -0.00000370 </v>
    <v>       0.58066058       0.62500000       0.00009289 </v>
    <v>       0.75276183       0.62500000       0.00015858 </v>
    <v>       0.49806553       0.74998742      -0.00000989 </v>
[...]
       <r>    -0.0324     1.4658    74.0876 </r>
       <r>     0.0373     0.3593    74.1126 </r>
       <r>     0.1070     1.2085    74.1969 </r>
       <r>     0.1767     3.9543    74.4726 </r>
       <r>     0.2465     8.2975    75.0512 </r>
       <r>     0.3162     9.5079    75.7141 </r>
       <r>     0.3859     6.9828    76.2010 </r>
       <r>     0.4556     4.1714    76.4919 </r>
       <r>     0.5254     2.1310    76.6405 </r>
       <r>     0.5951     5.6508    77.0345 </r>
       <r>     0.6648     6.2941    77.4734 </r>
       <r>     0.7346     4.1009    77.7593 </r>
       <r>     0.8043     6.0252    78.1795 </r>
       <r>     0.8740     7.8558    78.7272 </r>
       <r>     0.9437     6.3147    79.1675 </r>
       <r>     1.0135     5.9442    79.5820 </r>
       <r>     1.0832     8.9049    80.2029 </r>
       <r>     1.1529     9.2592    80.8486 </r>
       <r>     1.2227     6.8141    81.3237 </r>
       <r>     1.2924     5.6962    81.7209 </r>
       <r>     1.3621     9.0351    82.3509 </r>
       <r>     1.4318    11.2791    83.1374 </r>
       <r>     1.5016    11.5748    83.9445 </r>
       <r>     1.5713     8.9559    84.5689 </r>
       <r>     1.6410     4.7825    84.9024 </r>
       <r>     1.7108     1.6350    85.0164 </r>
       <r>     1.7805    -0.0895    85.0102 </r>
       <r>     1.8502    -0.1303    85.0011 </r>
       <r>     1.9199    -0.0149    85.0000 </r>
       <r>     1.9897    -0.0005    85.0000 </r>
       <r>     2.0594    -0.0000    85.0000 </r>
       <r>     2.1291    -0.0000    85.0000 </r>
       <r>     2.1989    -0.0000    85.0000 </r>
       <r>     2.2686    -0.0000    85.0000 </r>
       <r>     2.3383     0.0000    85.0000 </r>
       <r>     2.4080     0.0000    85.0000 </r>
       <r>     2.4778     0.0000    85.0000 </r>
       <r>     2.5475     0.0000    85.0000 </r>
       <r>     2.6172     0.0000    85.0000 </r>
      </set>
      <set comment="spin 2">
       <r>   -18.3012     0.0000     0.0000 </r>
       <r>   -18.2315     0.0000     0.0000 </r>
       <r>   -18.1618    -0.0000    -0.0000 </r>
       <r>   -18.0920    -0.0000    -0.0000 </r>
       <r>   -18.0223    -0.0000    -0.0000 </r>
       <r>   -17.9526    -0.0000    -0.0000 </r>
       <r>   -17.8829    -0.0000    -0.0000 </r>
       <r>   -17.8131    -0.0000    -0.0000 </r>
       <r>   -17.7434    -0.0000    -0.0000 </r>
       <r>   -17.6737    -0.0000    -0.0000 </r>
       <r>   -17.6039    -0.0001    -0.0000 </r>
       <r>   -17.5342    -0.0049    -0.0004 </r>
       <r>   -17.4645    -0.0595    -0.0045 </r>
       <r>   -17.3948    -0.1906    -0.0178 </r>
       <r>   -17.3250     0.5625     0.0214 </r>
       <r>   -17.2553     3.8740     0.2916 </r>
       <r>   -17.1856     7.1000     0.7866 </r>
       <r>   -17.1158     7.2541     1.2924 </r>
       <r>   -17.0461     6.2632     1.7292 </r>
       <r>   -16.9764     3.8773     1.9995 </r>
       <r>   -16.9067     3.8393     2.2672 </r>
       <r>   -16.8369     5.2496     2.6333 </r>
       <r>   -16.7672     5.2842     3.0017 </r>
       <r>   -16.6975     3.8370     3.2693 </r>
       <r>   -16.6278     0.9801     3.3376 </r>
       <r>   -16.5580     2.0126     3.4780 </r>
       <r>   -16.4883     5.0209     3.8280 </r>
       <r>   -16.4186     5.4629     4.2090 </r>
       <r>   -16.3488     4.7114     4.5375 </r>
       <r>   -16.2791     1.9793     4.6755 </r>
       <r>   -16.2094    -0.0101     4.6748 </r>
       <r>   -16.1397    -0.3114     4.6531 </r>
       <r>   -16.0699     0.1618     4.6644 </r>
       <r>   -16.0002     2.9291     4.8686 </r>
       <r>   -15.9305     5.5192     5.2534 </r>
       <r>   -15.8607     5.6399     5.6467 </r>
       <r>   -15.7910     4.2092     5.9402 </r>
       <r>   -15.7213     1.1165     6.0180 </r>
       <r>   -15.6516    -0.1672     6.0064 </r>
       <r>   -15.5818    -0.0853     6.0004 </r>
       <r>   -15.5121    -0.0394     5.9977 </r>
       <r>   -15.4424    -0.1867     5.9847 </r>
       <r>   -15.3726     0.1869     5.9977 </r>
       <r>   -15.3029     2.9795     6.2055 </r>
       <r>   -15.2332     5.6514     6.5995 </r>
       <r>   -15.1635     5.7861     7.0030 </r>
       <r>   -15.0937     4.0699     7.2868 </r>
       <r>   -15.0240     0.9344     7.3519 </r>
       <r>   -14.9543    -0.1866     7.3389 </r>
       <r>   -14.8845    -0.0811     7.3332 </r>
       <r>   -14.8148    -0.0709     7.3283 </r>
       <r>   -14.7451    -0.0532     7.3246 </r>
       <r>   -14.6754     0.9655     7.3919 </r>
       <r>   -14.6056     2.5437     7.5693 </r>
       <r>   -14.5359     2.8040     7.7648 </r>
       <r>   -14.4662     2.3479     7.9285 </r>
       <r>   -14.3964     1.5424     8.0361 </r>
       <r>   -14.3267     2.0891     8.1817 </r>
       <r>   -14.2570     1.9842     8.3201 </r>
       <r>   -14.1873     2.6607     8.5056 </r>
       <r>   -14.1175     6.4686     8.9567 </r>
       <r>   -14.0478     7.6971     9.4934 </r>
       <r>   -13.9781     2.7881     9.6878 </r>
       <r>   -13.9084     0.5704     9.7275 </r>
       <r>   -13.8386     1.4988     9.8320 </r>
       <r>   -13.7689     0.6370     9.8765 </r>
       <r>   -13.6992     0.9453     9.9424 </r>
       <r>   -13.6294     3.7770    10.2057 </r>
       <r>   -13.5597     6.0922    10.6305 </r>
       <r>   -13.4900     6.3812    11.0755 </r>
       <r>   -13.4203     6.0236    11.4955 </r>
       <r>   -13.3505     9.1659    12.1346 </r>
       <r>   -13.2808     8.4201    12.7217 </r>
       <r>   -13.2111     3.9688    12.9985 </r>
       <r>   -13.1413     5.1707    13.3590 </r>
       <r>   -13.0716     7.0951    13.8538 </r>
       <r>   -13.0019     3.3073    14.0844 </r>
       <r>   -12.9322     4.0566    14.3672 </r>
       <r>   -12.8624     4.7519    14.6986 </r>
       <r>   -12.7927     2.8966    14.9005 </r>
       <r>   -12.7230     1.9605    15.0372 </r>
       <r>   -12.6532     2.0503    15.1802 </r>
       <r>   -12.5835     4.0935    15.4656 </r>
       <r>   -12.5138     6.0172    15.8852 </r>
       <r>   -12.4441     5.6677    16.2804 </r>
       <r>   -12.3743     3.9183    16.5536 </r>
       <r>   -12.3046     6.1559    16.9829 </r>
       <r>   -12.2349    10.1738    17.6923 </r>
       <r>   -12.1651     8.2046    18.2644 </r>
       <r>   -12.0954     4.7906    18.5984 </r>
       <r>   -12.0257     2.7368    18.7892 </r>
       <r>   -11.9560     2.1314    18.9378 </r>
       <r>   -11.8862     2.7622    19.1304 </r>
       <r>   -11.8165     1.9783    19.2684 </r>
       <r>   -11.7468     0.8690    19.3290 </r>
       <r>   -11.6771     0.1321    19.3382 </r>
       <r>   -11.6073    -0.0550    19.3344 </r>
       <r>   -11.5376    -0.0291    19.3323 </r>
       <r>   -11.4679    -0.0659    19.3277 </r>
       <r>   -11.3981     0.0845    19.3336 </r>
       <r>   -11.3284     0.8529    19.3931 </r>
       <r>   -11.2587     2.4685    19.5652 </r>
       <r>   -11.1890     5.2118    19.9286 </r>
       <r>   -11.1192     5.9389    20.3427 </r>
       <r>   -11.0495     5.3442    20.7154 </r>
       <r>   -10.9798     3.5199    20.9608 </r>
       <r>   -10.9100     0.6682    21.0074 </r>
       <r>   -10.8403     0.0263    21.0093 </r>
       <r>   -10.7706     1.2070    21.0934 </r>
       <r>   -10.7009     2.4914    21.2671 </r>
       <r>   -10.6311     4.5005    21.5809 </r>
       <r>   -10.5614     3.8593    21.8501 </r>
       <r>   -10.4917     0.7630    21.9033 </r>
       <r>   -10.4219    -0.3618    21.8780 </r>
       <r>   -10.3522     0.4426    21.9089 </r>
       <r>   -10.2825     3.1779    22.1305 </r>
       <r>   -10.2128     3.5474    22.3778 </r>
       <r>   -10.1430     0.8856    22.4396 </r>
       <r>   -10.0733     0.5302    22.4766 </r>
       <r>   -10.0036     3.4906    22.7199 </r>
       <r>    -9.9338     6.0138    23.1393 </r>
       <r>    -9.8641     5.6232    23.5314 </r>
       <r>    -9.7944     3.7909    23.7957 </r>
       <r>    -9.7247     3.4701    24.0377 </r>
       <r>    -9.6549     6.8230    24.5134 </r>
       <r>    -9.5852     9.2229    25.1565 </r>
       <r>    -9.5155     6.9312    25.6398 </r>
       <r>    -9.4458     5.1828    26.0012 </r>
       <r>    -9.3760     2.9721    26.2085 </r>
       <r>    -9.3063     1.9235    26.3426 </r>
       <r>    -9.2366     4.0822    26.6272 </r>
       <r>    -9.1668     4.6929    26.9544 </r>
       <r>    -9.0971     4.2105    27.2480 </r>
       <r>    -9.0274     2.4614    27.4197 </r>
       <r>    -8.9577     2.8503    27.6184 </r>
       <r>    -8.8879     7.7647    28.1598 </r>
       <r>    -8.8182    11.9853    28.9955 </r>
       <r>    -8.7485     9.9097    29.6865 </r>
       <r>    -8.6787     7.9482    30.2407 </r>
       <r>    -8.6090     6.9021    30.7220 </r>
       <r>    -8.5393     3.8465    30.9902 </r>
       <r>    -8.4696     3.3664    31.2250 </r>
       <r>    -8.3998     4.1204    31.5123 </r>
       <r>    -8.3301     4.3378    31.8147 </r>
       <r>    -8.2604     5.2434    32.1803 </r>
       <r>    -8.1906     5.9724    32.5968 </r>
       <r>    -8.1209     5.8303    33.0033 </r>
       <r>    -8.0512     5.9844    33.4206 </r>
       <r>    -7.9815     6.5172    33.8750 </r>
       <r>    -7.9117     7.4920    34.3974 </r>
       <r>    -7.8420     7.3294    34.9085 </r>
       <r>    -7.7723     6.0164    35.3280 </r>
       <r>    -7.7025     9.1922    35.9690 </r>
       <r>    -7.6328    11.3907    36.7632 </r>
       <r>    -7.5631    10.6847    37.5082 </r>
       <r>    -7.4934     8.4291    38.0960 </r>
       <r>    -7.4236     6.5628    38.5536 </r>
       <r>    -7.3539     6.3155    38.9940 </r>
       <r>    -7.2842     4.7541    39.3255 </r>
       <r>    -7.2144     4.0376    39.6070 </r>
       <r>    -7.1447     4.7978    39.9415 </r>
       <r>    -7.0750     6.6755    40.4070 </r>
       <r>    -7.0053     6.7769    40.8796 </r>
       <r>    -6.9355     5.2051    41.2425 </r>
       <r>    -6.8658     5.3688    41.6169 </r>
       <r>    -6.7961     5.5039    42.0006 </r>
       <r>    -6.7264     6.5205    42.4553 </r>
       <r>    -6.6566     5.8519    42.8633 </r>
       <r>    -6.5869     2.1565    43.0137 </r>
       <r>    -6.5172     2.8068    43.2094 </r>
       <r>    -6.4474     6.4161    43.6568 </r>
       <r>    -6.3777     8.3670    44.2402 </r>
       <r>    -6.3080     5.2841    44.6087 </r>
       <r>    -6.2383     2.7526    44.8006 </r>
       <r>    -6.1685     6.2976    45.2397 </r>
       <r>    -6.0988     6.1477    45.6684 </r>
       <r>    -6.0291     4.1745    45.9595 </r>
       <r>    -5.9593     7.3854    46.4744 </r>
       <r>    -5.8896     9.6715    47.1488 </r>
       <r>    -5.8199     7.5307    47.6739 </r>
       <r>    -5.7502     5.0713    48.0275 </r>
       <r>    -5.6804     5.1457    48.3863 </r>
       <r>    -5.6107     6.0273    48.8066 </r>
       <r>    -5.5410     7.5269    49.3314 </r>
       <r>    -5.4712     9.4867    49.9929 </r>
       <r>    -5.4015     7.0157    50.4821 </r>
       <r>    -5.3318     4.7776    50.8152 </r>
       <r>    -5.2621    11.1679    51.5940 </r>
       <r>    -5.1923    14.0273    52.5721 </r>
       <r>    -5.1226     9.2880    53.2197 </r>
       <r>    -5.0529     4.9857    53.5673 </r>
       <r>    -4.9831     2.4339    53.7371 </r>
       <r>    -4.9134     4.6403    54.0606 </r>
       <r>    -4.8437     6.9443    54.5448 </r>
       <r>    -4.7740     8.1332    55.1119 </r>
       <r>    -4.7042     6.9848    55.5990 </r>
       <r>    -4.6345     5.5681    55.9872 </r>
       <r>    -4.5648     6.0165    56.4068 </r>
       <r>    -4.4951     6.6322    56.8692 </r>
       <r>    -4.4253     6.7678    57.3411 </r>
       <r>    -4.3556     4.6607    57.6661 </r>
       <r>    -4.2859     2.7673    57.8591 </r>
       <r>    -4.2161     2.9391    58.0640 </r>
       <r>    -4.1464     4.8692    58.4035 </r>
       <r>    -4.0767     7.4437    58.9225 </r>
       <r>    -4.0070     6.9090    59.4043 </r>
       <r>    -3.9372     5.7119    59.8026 </r>
       <r>    -3.8675     4.0357    60.0840 </r>
       <r>    -3.7978     1.9930    60.2229 </r>
       <r>    -3.7280     2.4774    60.3957 </r>
       <r>    -3.6583     3.6163    60.6478 </r>
       <r>    -3.5886     7.0755    61.1412 </r>
       <r>    -3.5189     8.9787    61.7673 </r>
       <r>    -3.4491     6.5881    62.2267 </r>
       <r>    -3.3794     3.9951    62.5052 </r>
       <r>    -3.3097     3.0612    62.7187 </r>
       <r>    -3.2399     5.0246    63.0690 </r>
       <r>    -3.1702     5.5805    63.4581 </r>
       <r>    -3.1005     3.8800    63.7287 </r>
       <r>    -3.0308     5.3887    64.1044 </r>
       <r>    -2.9610     3.5948    64.3551 </r>
       <r>    -2.8913     3.8768    64.6254 </r>
       <r>    -2.8216     4.2488    64.9217 </r>
       <r>    -2.7518     1.5871    65.0324 </r>
       <r>    -2.6821     5.3282    65.4039 </r>
       <r>    -2.6124     8.1780    65.9741 </r>
       <r>    -2.5427     4.8830    66.3146 </r>
       <r>    -2.4729     4.1000    66.6005 </r>
       <r>    -2.4032     4.2277    66.8953 </r>
       <r>    -2.3335     5.3098    67.2655 </r>
       <r>    -2.2638     7.2717    67.7726 </r>
       <r>    -2.1940     4.5141    68.0873 </r>
       <r>    -2.1243     1.0930    68.1635 </r>
       <r>    -2.0546     1.1980    68.2471 </r>
       <r>    -1.9848     4.0178    68.5272 </r>
       <r>    -1.9151     5.5103    68.9114 </r>
       <r>    -1.8454     4.0181    69.1916 </r>
       <r>    -1.7757     2.9963    69.4005 </r>
       <r>    -1.7059     1.6281    69.5141 </r>
       <r>    -1.6362     2.0700    69.6584 </r>
       <r>    -1.5665     1.5443    69.7661 </r>
       <r>    -1.4967     0.2147    69.7811 </r>
       <r>    -1.4270    -0.1838    69.7683 </r>
       <r>    -1.3573     0.5687    69.8079 </r>
       <r>    -1.2876     2.4512    69.9788 </r>
       <r>    -1.2178     4.7800    70.3121 </r>
       <r>    -1.1481     5.3285    70.6837 </r>
       <r>    -1.0784     2.7044    70.8722 </r>
       <r>    -1.0086     1.4767    70.9752 </r>
       <r>    -0.9389     0.3252    70.9979 </r>
       <r>    -0.8692    -0.3476    70.9736 </r>
       <r>    -0.7995     2.1013    71.1202 </r>
       <r>    -0.7297     6.6341    71.5828 </r>
       <r>    -0.6600     5.0199    71.9328 </r>
       <r>    -0.5903     2.5896    72.1133 </r>
       <r>    -0.5205     4.8237    72.4497 </r>
       <r>    -0.4508     4.6401    72.7732 </r>
       <r>    -0.3811     5.5712    73.1617 </r>
       <r>    -0.3114     6.3156    73.6021 </r>
       <r>    -0.2416     2.8897    73.8036 </r>
       <r>    -0.1719     0.9921    73.8728 </r>
       <r>    -0.1022     1.6070    73.9848 </r>
       <r>    -0.0324     1.4699    74.0873 </r>
       <r>     0.0373     0.3635    74.1126 </r>
       <r>     0.1070     1.2065    74.1968 </r>
       <r>     0.1767     3.9422    74.4717 </r>
       <r>     0.2465     8.2870    75.0495 </r>
       <r>     0.3162     9.5073    75.7124 </r>
       <r>     0.3859     6.9798    76.1991 </r>
       <r>     0.4556     4.1867    76.4910 </r>
       <r>     0.5254     2.1359    76.6400 </r>
       <r>     0.5951     5.6481    77.0338 </r>
       <r>     0.6648     6.2990    77.4730 </r>
       <r>     0.7346     4.0678    77.7567 </r>
       <r>     0.8043     5.9595    78.1722 </r>
       <r>     0.8740     7.8135    78.7170 </r>
       <r>     0.9437     6.1365    79.1449 </r>
       <r>     1.0135     5.9152    79.5574 </r>
       <r>     1.0832     9.0053    80.1853 </r>
       <r>     1.1529     9.0168    80.8140 </r>
       <r>     1.2227     6.8943    81.2947 </r>
       <r>     1.2924     5.9079    81.7067 </r>
       <r>     1.3621     9.0023    82.3344 </r>
       <r>     1.4318    10.8924    83.0939 </r>
       <r>     1.5016    11.5820    83.9015 </r>
       <r>     1.5713     9.4900    84.5632 </r>
       <r>     1.6410     4.9489    84.9083 </r>
       <r>     1.7108     1.5686    85.0177 </r>
       <r>     1.7805    -0.1103    85.0100 </r>
       <r>     1.8502    -0.1284    85.0010 </r>
       <r>     1.9199    -0.0143    85.0000 </r>
       <r>     1.9897    -0.0005    85.0000 </r>
       <r>     2.0594    -0.0000    85.0000 </r>
       <r>     2.1291    -0.0000    85.0000 </r>
       <r>     2.1989    -0.0000    85.0000 </r>
       <r>     2.2686    -0.0000    85.0000 </r>
       <r>     2.3383     0.0000    85.0000 </r>
       <r>     2.4080     0.0000    85.0000 </r>
       <r>     2.4778     0.0000    85.0000 </r>
       <r>     2.5475     0.0000    85.0000 </r>
       <r>     2.6172     0.0000    85.0000 </r>
      </set>
     </set>
    </array>
   </total>
  </dos>
 </calculation>
 <structure name="finalpos" >
  <crystal>
   <varray name="basis" >
    <v>      10.16000000       0.00000000       0.00000000 </v>
    <v>       0.00000000      11.76000000       0.00000000 </v>
    <v>       0.00000000       0.00000000      15.00000000 </v>
   </varray>
   <i name="volume">   1792.22400000 </i>
   <varray name="rec_basis" >
    <v>       0.09842520       0.00000000       0.00000000 </v>
    <v>       0.00000000       0.08503401       0.00000000 </v>
    <v>       0.00000000       0.00000000       0.06666667 </v>
   </varray>
  </crystal>
  <varray name="positions" >
   <v>      -0.00266490      -0.00097360      -0.02058032 </v>
   <v>       0.15645624      -0.00179223      -0.00040987 </v>
   <v>       0.32242392      -0.00607464       0.03768078 </v>
   <v>       0.07674149       0.12500000      -0.01428756 </v>
   <v>       0.23877342       0.12500000       0.02784328 </v>
   <v>      -0.00266490       0.25097360      -0.02058032 </v>
   <v>       0.15645624       0.25179223      -0.00040987 </v>
   <v>       0.32242392       0.25607464       0.03768078 </v>
   <v>       0.07858757       0.37590258      -0.00807859 </v>
   <v>       0.24923240       0.37531941       0.00913831 </v>
   <v>       0.99756423       0.50086243      -0.00858781 </v>
   <v>       0.16604214       0.50146020      -0.00169642 </v>
   <v>       0.33499710       0.49999082       0.00300139 </v>
   <v>       0.08048907       0.62500000      -0.00296538 </v>
   <v>       0.25216133       0.62500000      -0.00158405 </v>
   <v>       0.99756423       0.74913757      -0.00858781 </v>
   <v>       0.16604214       0.74853980      -0.00169642 </v>
   <v>       0.33499710       0.75000918       0.00300139 </v>
   <v>       0.07858757       0.87409742      -0.00807859 </v>
   <v>       0.24923240       0.87468059       0.00913831 </v>
   <v>       0.51100167      -0.00608902       0.03795987 </v>
   <v>       0.67695664      -0.00181723      -0.00017894 </v>
   <v>       0.83600872      -0.00095033      -0.02049437 </v>
   <v>       0.59457348       0.12500000       0.02804967 </v>
   <v>       0.75654004       0.12500000      -0.01417697 </v>
   <v>       0.51100167       0.25608902       0.03795987 </v>
   <v>       0.67695664       0.25181723      -0.00017894 </v>
   <v>       0.83600872       0.25095033      -0.02049437 </v>
   <v>       0.58416465       0.37532674       0.00940898 </v>
   <v>       0.75473373       0.37591634      -0.00799572 </v>
   <v>       0.49831060       0.49998927       0.00311731 </v>
   <v>       0.66723121       0.50148017      -0.00161922 </v>
   <v>       0.83572918       0.50087502      -0.00858128 </v>
   <v>       0.58112906       0.62500000      -0.00146290 </v>
   <v>       0.75281359       0.62500000      -0.00288797 </v>
   <v>       0.49831060       0.75001073       0.00311731 </v>
   <v>       0.66723121       0.74851983      -0.00161922 </v>
   <v>       0.83572918       0.74912498      -0.00858128 </v>
   <v>       0.58416465       0.87467326       0.00940898 </v>
   <v>       0.75473373       0.87408366      -0.00799572 </v>
   <v>       0.41661833       0.12500000       0.07063367 </v>
  </varray>
 </structure>
</modeling>
