   3   3   0   0
  0.5974080E+03  0.1016000E-08  0.1176000E-08  0.1500000E-08  0.5000000E-15
  1.000000000000000E-004
  CAR 
 Beta12Borophene !The name of the system 
      2.33720092    -26.59037767  301     -7.03487548      1.00000000
    -26.590  0.0000E+00  0.0000E+00  0.0000E+00  0.0000E+00
    -26.494  0.0000E+00  0.0000E+00  0.0000E+00  0.0000E+00
    -26.398  0.0000E+00  0.0000E+00  0.0000E+00  0.0000E+00
    -26.301  0.0000E+00  0.0000E+00  0.0000E+00  0.0000E+00
    -26.205  0.0000E+00  0.0000E+00  0.0000E+00  0.0000E+00
    -26.108 -0.1853E-31 -0.1264E-34 -0.1787E-32 -0.1219E-35
    -26.012 -0.6102E-25 -0.9596E-28 -0.5884E-26 -0.9253E-29
    -25.915 -0.3076E-19 -0.1117E-21 -0.2966E-20 -0.1077E-22
    -25.819 -0.2281E-14 -0.1926E-16 -0.2199E-15 -0.1857E-17
    -25.723 -0.2596E-10 -0.5121E-12 -0.2504E-11 -0.4939E-13
    -25.626 -0.4321E-07 -0.2016E-08 -0.4169E-08 -0.1945E-09
    -25.530 -0.9881E-05 -0.1131E-05 -0.9569E-06 -0.1092E-06
    -25.433 -0.2399E-03 -0.7976E-04 -0.2409E-04 -0.7800E-05
    -25.337  0.1016E-02 -0.2205E-03  0.7393E-04 -0.2906E-04
    -25.240  0.7296E-02  0.4795E-02  0.7774E-03  0.4333E-03
    -25.144  0.2665E-02  0.5968E-02  0.1034E-02  0.1009E-02
    -25.048 -0.3259E-03  0.4006E-04  0.1003E-02  0.1013E-02
    -24.951 -0.3019E-04 -0.1281E-03  0.1000E-02  0.1000E-02
    -24.855 -0.2328E-06 -0.2636E-05  0.1000E-02  0.1000E-02
    -24.758 -0.2383E-09 -0.6520E-08  0.1000E-02  0.1000E-02
    -24.662 -0.3526E-13 -0.2272E-11  0.1000E-02  0.1000E-02
    -24.565  0.0000E+00 -0.1174E-15  0.1000E-02  0.1000E-02
    -24.469  0.0000E+00  0.0000E+00  0.1000E-02  0.1000E-02
    -24.373  0.0000E+00  0.0000E+00  0.1000E-02  0.1000E-02
    -24.276  0.0000E+00  0.0000E+00  0.1000E-02  0.1000E-02
    -24.180  0.0000E+00  0.0000E+00  0.1000E-02  0.1000E-02
    -24.083  0.0000E+00  0.0000E+00  0.1000E-02  0.1000E-02
    -23.987  0.0000E+00  0.0000E+00  0.1000E-02  0.1000E-02
    -23.890  0.0000E+00  0.0000E+00  0.1000E-02  0.1000E-02
    -23.794  0.0000E+00  0.0000E+00  0.1000E-02  0.1000E-02
    -23.698  0.0000E+00  0.0000E+00  0.1000E-02  0.1000E-02
    -23.601  0.0000E+00  0.0000E+00  0.1000E-02  0.1000E-02
    -23.505  0.0000E+00  0.0000E+00  0.1000E-02  0.1000E-02
    -23.408  0.0000E+00  0.0000E+00  0.1000E-02  0.1000E-02
    -23.312  0.0000E+00  0.0000E+00  0.1000E-02  0.1000E-02
    -23.215  0.0000E+00  0.0000E+00  0.1000E-02  0.1000E-02
    -23.119  0.0000E+00  0.0000E+00  0.1000E-02  0.1000E-02
    -23.023  0.0000E+00  0.0000E+00  0.1000E-02  0.1000E-02
    -22.926  0.0000E+00  0.0000E+00  0.1000E-02  0.1000E-02
    -22.830  0.0000E+00  0.0000E+00  0.1000E-02  0.1000E-02
    -22.733  0.0000E+00  0.0000E+00  0.1000E-02  0.1000E-02
    -22.637  0.0000E+00  0.0000E+00  0.1000E-02  0.1000E-02
    -22.541  0.0000E+00  0.0000E+00  0.1000E-02  0.1000E-02
    -22.444  0.0000E+00  0.0000E+00  0.1000E-02  0.1000E-02
    -22.348  0.0000E+00  0.0000E+00  0.1000E-02  0.1000E-02
    -22.251  0.0000E+00  0.0000E+00  0.1000E-02  0.1000E-02
    -22.155  0.0000E+00  0.0000E+00  0.1000E-02  0.1000E-02
    -22.058  0.0000E+00  0.0000E+00  0.1000E-02  0.1000E-02
    -21.962  0.0000E+00  0.0000E+00  0.1000E-02  0.1000E-02
    -21.866  0.0000E+00  0.0000E+00  0.1000E-02  0.1000E-02
    -21.769  0.0000E+00  0.0000E+00  0.1000E-02  0.1000E-02
    -21.673  0.0000E+00  0.0000E+00  0.1000E-02  0.1000E-02
    -21.576  0.0000E+00  0.0000E+00  0.1000E-02  0.1000E-02
    -21.480  0.0000E+00  0.0000E+00  0.1000E-02  0.1000E-02
    -21.383  0.0000E+00  0.0000E+00  0.1000E-02  0.1000E-02
    -21.287  0.0000E+00  0.0000E+00  0.1000E-02  0.1000E-02
    -21.191  0.0000E+00  0.0000E+00  0.1000E-02  0.1000E-02
    -21.094  0.0000E+00  0.0000E+00  0.1000E-02  0.1000E-02
    -20.998  0.0000E+00  0.0000E+00  0.1000E-02  0.1000E-02
    -20.901  0.0000E+00  0.0000E+00  0.1000E-02  0.1000E-02
    -20.805  0.0000E+00  0.0000E+00  0.1000E-02  0.1000E-02
    -20.708  0.0000E+00  0.0000E+00  0.1000E-02  0.1000E-02
    -20.612  0.0000E+00  0.0000E+00  0.1000E-02  0.1000E-02
    -20.516  0.0000E+00  0.0000E+00  0.1000E-02  0.1000E-02
    -20.419  0.0000E+00  0.0000E+00  0.1000E-02  0.1000E-02
    -20.323  0.0000E+00  0.0000E+00  0.1000E-02  0.1000E-02
    -20.226  0.0000E+00  0.0000E+00  0.1000E-02  0.1000E-02
    -20.130  0.0000E+00  0.0000E+00  0.1000E-02  0.1000E-02
    -20.033  0.0000E+00  0.0000E+00  0.1000E-02  0.1000E-02
    -19.937  0.0000E+00  0.0000E+00  0.1000E-02  0.1000E-02
    -19.841  0.0000E+00  0.0000E+00  0.1000E-02  0.1000E-02
    -19.744  0.0000E+00  0.0000E+00  0.1000E-02  0.1000E-02
    -19.648  0.0000E+00  0.0000E+00  0.1000E-02  0.1000E-02
    -19.551  0.0000E+00  0.0000E+00  0.1000E-02  0.1000E-02
    -19.455  0.0000E+00  0.0000E+00  0.1000E-02  0.1000E-02
    -19.358  0.0000E+00  0.0000E+00  0.1000E-02  0.1000E-02
    -19.262  0.0000E+00  0.0000E+00  0.1000E-02  0.1000E-02
    -19.166  0.0000E+00  0.0000E+00  0.1000E-02  0.1000E-02
    -19.069  0.0000E+00  0.0000E+00  0.1000E-02  0.1000E-02
    -18.973  0.0000E+00  0.0000E+00  0.1000E-02  0.1000E-02
    -18.876  0.0000E+00  0.0000E+00  0.1000E-02  0.1000E-02
    -18.780  0.0000E+00  0.0000E+00  0.1000E-02  0.1000E-02
    -18.684  0.0000E+00  0.0000E+00  0.1000E-02  0.1000E-02
    -18.587  0.0000E+00  0.0000E+00  0.1000E-02  0.1000E-02
    -18.491  0.0000E+00  0.0000E+00  0.1000E-02  0.1000E-02
    -18.394  0.0000E+00  0.0000E+00  0.1000E-02  0.1000E-02
    -18.298  0.0000E+00  0.0000E+00  0.1000E-02  0.1000E-02
    -18.201  0.0000E+00  0.0000E+00  0.1000E-02  0.1000E-02
    -18.105  0.0000E+00  0.0000E+00  0.1000E-02  0.1000E-02
    -18.009  0.0000E+00  0.0000E+00  0.1000E-02  0.1000E-02
    -17.912  0.0000E+00  0.0000E+00  0.1000E-02  0.1000E-02
    -17.816  0.0000E+00  0.0000E+00  0.1000E-02  0.1000E-02
    -17.719  0.0000E+00  0.0000E+00  0.1000E-02  0.1000E-02
    -17.623  0.0000E+00  0.0000E+00  0.1000E-02  0.1000E-02
    -17.526  0.0000E+00  0.0000E+00  0.1000E-02  0.1000E-02
    -17.430  0.0000E+00  0.0000E+00  0.1000E-02  0.1000E-02
    -17.334  0.0000E+00  0.0000E+00  0.1000E-02  0.1000E-02
    -17.237  0.0000E+00  0.0000E+00  0.1000E-02  0.1000E-02
    -17.141  0.0000E+00  0.0000E+00  0.1000E-02  0.1000E-02
    -17.044  0.0000E+00  0.0000E+00  0.1000E-02  0.1000E-02
    -16.948  0.0000E+00  0.0000E+00  0.1000E-02  0.1000E-02
    -16.851  0.0000E+00  0.0000E+00  0.1000E-02  0.1000E-02
    -16.755  0.0000E+00  0.0000E+00  0.1000E-02  0.1000E-02
    -16.659  0.0000E+00  0.0000E+00  0.1000E-02  0.1000E-02
    -16.562  0.0000E+00  0.0000E+00  0.1000E-02  0.1000E-02
    -16.466  0.0000E+00  0.0000E+00  0.1000E-02  0.1000E-02
    -16.369  0.0000E+00  0.0000E+00  0.1000E-02  0.1000E-02
    -16.273  0.0000E+00  0.0000E+00  0.1000E-02  0.1000E-02
    -16.176  0.0000E+00  0.0000E+00  0.1000E-02  0.1000E-02
    -16.080  0.0000E+00  0.0000E+00  0.1000E-02  0.1000E-02
    -15.984  0.0000E+00  0.0000E+00  0.1000E-02  0.1000E-02
    -15.887  0.0000E+00  0.0000E+00  0.1000E-02  0.1000E-02
    -15.791  0.0000E+00  0.0000E+00  0.1000E-02  0.1000E-02
    -15.694  0.0000E+00  0.0000E+00  0.1000E-02  0.1000E-02
    -15.598  0.0000E+00  0.0000E+00  0.1000E-02  0.1000E-02
    -15.501  0.0000E+00  0.0000E+00  0.1000E-02  0.1000E-02
    -15.405  0.0000E+00  0.0000E+00  0.1000E-02  0.1000E-02
    -15.309  0.0000E+00  0.0000E+00  0.1000E-02  0.1000E-02
    -15.212  0.0000E+00  0.0000E+00  0.1000E-02  0.1000E-02
    -15.116  0.0000E+00  0.0000E+00  0.1000E-02  0.1000E-02
    -15.019  0.0000E+00  0.0000E+00  0.1000E-02  0.1000E-02
    -14.923  0.0000E+00  0.0000E+00  0.1000E-02  0.1000E-02
    -14.826  0.0000E+00  0.0000E+00  0.1000E-02  0.1000E-02
    -14.730  0.0000E+00  0.0000E+00  0.1000E-02  0.1000E-02
    -14.634  0.0000E+00  0.0000E+00  0.1000E-02  0.1000E-02
    -14.537  0.0000E+00  0.0000E+00  0.1000E-02  0.1000E-02
    -14.441  0.0000E+00  0.0000E+00  0.1000E-02  0.1000E-02
    -14.344  0.0000E+00  0.0000E+00  0.1000E-02  0.1000E-02
    -14.248  0.0000E+00  0.0000E+00  0.1000E-02  0.1000E-02
    -14.152  0.0000E+00  0.0000E+00  0.1000E-02  0.1000E-02
    -14.055  0.0000E+00  0.0000E+00  0.1000E-02  0.1000E-02
    -13.959 -0.4760E-36  0.0000E+00  0.1000E-02  0.1000E-02
    -13.862 -0.5189E-29 -0.4344E-30  0.1000E-02  0.1000E-02
    -13.766 -0.8681E-23 -0.9827E-24  0.1000E-02  0.1000E-02
    -13.669 -0.2219E-17 -0.3399E-18  0.1000E-02  0.1000E-02
    -13.573 -0.8283E-13 -0.1723E-13  0.1000E-02  0.1000E-02
    -13.477 -0.4728E-09 -0.1338E-09  0.1000E-02  0.1000E-02
    -13.380 -0.3884E-06 -0.1508E-06  0.1000E-02  0.1000E-02
    -13.284 -0.4177E-04 -0.2279E-04  0.9959E-03  0.9978E-03
    -13.187 -0.3255E-03 -0.3121E-03  0.9645E-03  0.9677E-03
    -13.091  0.3311E-02  0.2166E-02  0.1284E-02  0.1177E-02
    -12.994  0.7006E-02  0.7431E-02  0.1959E-02  0.1893E-02
    -12.898  0.6302E-03  0.1392E-02  0.2020E-02  0.2027E-02
    -12.802 -0.2027E-03 -0.2695E-03  0.2001E-02  0.2001E-02
    -12.705 -0.6653E-05 -0.1352E-04  0.2000E-02  0.2000E-02
    -12.609 -0.2431E-07 -0.6867E-07  0.2000E-02  0.2000E-02
    -12.512 -0.1231E-10 -0.4754E-10  0.2000E-02  0.2000E-02
    -12.416 -0.9142E-15 -0.4796E-14  0.2000E-02  0.2000E-02
    -12.319  0.0000E+00  0.0000E+00  0.2000E-02  0.2000E-02
    -12.223  0.0000E+00  0.0000E+00  0.2000E-02  0.2000E-02
    -12.127  0.0000E+00  0.0000E+00  0.2000E-02  0.2000E-02
    -12.030  0.0000E+00  0.0000E+00  0.2000E-02  0.2000E-02
    -11.934  0.0000E+00  0.0000E+00  0.2000E-02  0.2000E-02
    -11.837  0.0000E+00  0.0000E+00  0.2000E-02  0.2000E-02
    -11.741  0.0000E+00  0.0000E+00  0.2000E-02  0.2000E-02
    -11.644  0.0000E+00  0.0000E+00  0.2000E-02  0.2000E-02
    -11.548  0.0000E+00  0.0000E+00  0.2000E-02  0.2000E-02
    -11.452  0.0000E+00  0.0000E+00  0.2000E-02  0.2000E-02
    -11.355  0.0000E+00  0.0000E+00  0.2000E-02  0.2000E-02
    -11.259  0.0000E+00  0.0000E+00  0.2000E-02  0.2000E-02
    -11.162  0.0000E+00  0.0000E+00  0.2000E-02  0.2000E-02
    -11.066  0.0000E+00  0.0000E+00  0.2000E-02  0.2000E-02
    -10.969  0.0000E+00  0.0000E+00  0.2000E-02  0.2000E-02
    -10.873  0.0000E+00  0.0000E+00  0.2000E-02  0.2000E-02
    -10.777  0.0000E+00  0.0000E+00  0.2000E-02  0.2000E-02
    -10.680  0.0000E+00  0.0000E+00  0.2000E-02  0.2000E-02
    -10.584  0.0000E+00  0.0000E+00  0.2000E-02  0.2000E-02
    -10.487  0.0000E+00  0.0000E+00  0.2000E-02  0.2000E-02
    -10.391  0.0000E+00  0.0000E+00  0.2000E-02  0.2000E-02
    -10.295  0.0000E+00  0.0000E+00  0.2000E-02  0.2000E-02
    -10.198  0.0000E+00  0.0000E+00  0.2000E-02  0.2000E-02
    -10.102 -0.3521E-34 -0.7868E-36  0.2000E-02  0.2000E-02
    -10.005 -0.2382E-27 -0.8118E-29  0.2000E-02  0.2000E-02
     -9.909 -0.2471E-21 -0.1285E-22  0.2000E-02  0.2000E-02
     -9.812 -0.3797E-16 -0.3109E-17  0.2000E-02  0.2000E-02
     -9.716 -0.8985E-12 -0.1097E-12  0.2000E-02  0.2000E-02
     -9.620 -0.3144E-08 -0.5920E-09  0.2000E-02  0.2000E-02
     -9.523 -0.1561E-05 -0.4591E-06  0.2000E-02  0.2000E-02
     -9.427 -0.9599E-04 -0.4635E-04  0.1991E-02  0.1995E-02
     -9.330 -0.1453E-03 -0.3200E-03  0.1977E-02  0.1965E-02
     -9.234  0.5252E-02  0.3534E-02  0.2483E-02  0.2305E-02
     -9.137  0.5551E-02  0.6882E-02  0.3018E-02  0.2969E-02
     -9.041 -0.7989E-04  0.5183E-03  0.3011E-02  0.3019E-02
     -8.945 -0.1082E-03 -0.1905E-03  0.3000E-02  0.3001E-02
     -8.848 -0.1934E-05 -0.5810E-05  0.3000E-02  0.3000E-02
     -8.752 -0.4233E-08 -0.2000E-07  0.3000E-02  0.3000E-02
     -8.655 -0.1310E-11 -0.9567E-11  0.3000E-02  0.3000E-02
     -8.559 -0.5987E-16 -0.6701E-15  0.3000E-02  0.3000E-02
     -8.462  0.0000E+00  0.0000E+00  0.3000E-02  0.3000E-02
     -8.366  0.0000E+00  0.0000E+00  0.3000E-02  0.3000E-02
     -8.270  0.0000E+00  0.0000E+00  0.3000E-02  0.3000E-02
     -8.173  0.0000E+00  0.0000E+00  0.3000E-02  0.3000E-02
     -8.077 -0.2887E-34  0.0000E+00  0.3000E-02  0.3000E-02
     -7.980 -0.1998E-27 -0.4450E-34  0.3000E-02  0.3000E-02
     -7.884 -0.2119E-21 -0.2933E-27  0.3000E-02  0.3000E-02
     -7.787 -0.3315E-16 -0.2963E-21  0.3000E-02  0.3000E-02
     -7.691 -0.8060E-12 -0.4452E-16  0.3000E-02  0.3000E-02
     -7.595 -0.2886E-08 -0.1021E-11  0.3000E-02  0.3000E-02
     -7.498 -0.1467E-05 -0.3478E-08  0.3000E-02  0.3000E-02
     -7.402 -0.9267E-04 -0.1679E-05  0.2991E-02  0.3000E-02
     -7.305 -0.1618E-03 -0.1000E-03  0.2975E-02  0.2990E-02
     -7.209  0.5165E-02 -0.1246E-03  0.3473E-02  0.2978E-02
     -7.112  0.5635E-02  0.5355E-02  0.4017E-02  0.3495E-02
     -7.016 -0.5884E-04  0.5451E-02  0.4011E-02  0.4020E-02
     -6.920 -0.1119E-03 -0.1034E-03  0.4000E-02  0.4010E-02
     -6.823 -0.2055E-05 -0.1040E-03  0.4000E-02  0.4000E-02
     -6.727 -0.4606E-08 -0.1800E-05  0.4000E-02  0.4000E-02
     -6.630 -0.1459E-11 -0.3829E-08  0.4000E-02  0.4000E-02
     -6.534 -0.6908E-16 -0.1154E-11  0.4000E-02  0.4000E-02
     -6.437  0.0000E+00 -0.5066E-16  0.4000E-02  0.4000E-02
     -6.341  0.0000E+00  0.0000E+00  0.4000E-02  0.4000E-02
     -6.245  0.0000E+00  0.0000E+00  0.4000E-02  0.4000E-02
     -6.148  0.0000E+00  0.0000E+00  0.4000E-02  0.4000E-02
     -6.052  0.0000E+00  0.0000E+00  0.4000E-02  0.4000E-02
     -5.955  0.0000E+00  0.0000E+00  0.4000E-02  0.4000E-02
     -5.859  0.0000E+00  0.0000E+00  0.4000E-02  0.4000E-02
     -5.763  0.0000E+00  0.0000E+00  0.4000E-02  0.4000E-02
     -5.666  0.0000E+00  0.0000E+00  0.4000E-02  0.4000E-02
     -5.570  0.0000E+00  0.0000E+00  0.4000E-02  0.4000E-02
     -5.473  0.0000E+00  0.0000E+00  0.4000E-02  0.4000E-02
     -5.377  0.0000E+00  0.0000E+00  0.4000E-02  0.4000E-02
     -5.280  0.0000E+00  0.0000E+00  0.4000E-02  0.4000E-02
     -5.184  0.0000E+00  0.0000E+00  0.4000E-02  0.4000E-02
     -5.088  0.0000E+00  0.0000E+00  0.4000E-02  0.4000E-02
     -4.991  0.0000E+00  0.0000E+00  0.4000E-02  0.4000E-02
     -4.895  0.0000E+00  0.0000E+00  0.4000E-02  0.4000E-02
     -4.798  0.0000E+00  0.0000E+00  0.4000E-02  0.4000E-02
     -4.702  0.0000E+00  0.0000E+00  0.4000E-02  0.4000E-02
     -4.605  0.0000E+00  0.0000E+00  0.4000E-02  0.4000E-02
     -4.509  0.0000E+00  0.0000E+00  0.4000E-02  0.4000E-02
     -4.413  0.0000E+00  0.0000E+00  0.4000E-02  0.4000E-02
     -4.316  0.0000E+00  0.0000E+00  0.4000E-02  0.4000E-02
     -4.220  0.0000E+00  0.0000E+00  0.4000E-02  0.4000E-02
     -4.123  0.0000E+00  0.0000E+00  0.4000E-02  0.4000E-02
     -4.027  0.0000E+00  0.0000E+00  0.4000E-02  0.4000E-02
     -3.930  0.0000E+00  0.0000E+00  0.4000E-02  0.4000E-02
     -3.834  0.0000E+00  0.0000E+00  0.4000E-02  0.4000E-02
     -3.738  0.0000E+00  0.0000E+00  0.4000E-02  0.4000E-02
     -3.641  0.0000E+00  0.0000E+00  0.4000E-02  0.4000E-02
     -3.545  0.0000E+00  0.0000E+00  0.4000E-02  0.4000E-02
     -3.448  0.0000E+00  0.0000E+00  0.4000E-02  0.4000E-02
     -3.352  0.0000E+00  0.0000E+00  0.4000E-02  0.4000E-02
     -3.255  0.0000E+00  0.0000E+00  0.4000E-02  0.4000E-02
     -3.159  0.0000E+00  0.0000E+00  0.4000E-02  0.4000E-02
     -3.063  0.0000E+00  0.0000E+00  0.4000E-02  0.4000E-02
     -2.966  0.0000E+00  0.0000E+00  0.4000E-02  0.4000E-02
     -2.870  0.0000E+00  0.0000E+00  0.4000E-02  0.4000E-02
     -2.773  0.0000E+00  0.0000E+00  0.4000E-02  0.4000E-02
     -2.677  0.0000E+00  0.0000E+00  0.4000E-02  0.4000E-02
     -2.580  0.0000E+00  0.0000E+00  0.4000E-02  0.4000E-02
     -2.484  0.0000E+00  0.0000E+00  0.4000E-02  0.4000E-02
     -2.388  0.0000E+00  0.0000E+00  0.4000E-02  0.4000E-02
     -2.291  0.0000E+00  0.0000E+00  0.4000E-02  0.4000E-02
     -2.195  0.0000E+00  0.0000E+00  0.4000E-02  0.4000E-02
     -2.098  0.0000E+00  0.0000E+00  0.4000E-02  0.4000E-02
     -2.002  0.0000E+00  0.0000E+00  0.4000E-02  0.4000E-02
     -1.906  0.0000E+00  0.0000E+00  0.4000E-02  0.4000E-02
     -1.809 -0.8181E-32 -0.5005E-32  0.4000E-02  0.4000E-02
     -1.713 -0.2419E-25 -0.1567E-25  0.4000E-02  0.4000E-02
     -1.616 -0.1112E-19 -0.7624E-20  0.4000E-02  0.4000E-02
     -1.520 -0.7680E-15 -0.5578E-15  0.4000E-02  0.4000E-02
     -1.423 -0.8413E-11 -0.6470E-11  0.4000E-02  0.4000E-02
     -1.327 -0.1419E-07 -0.1156E-07  0.4000E-02  0.4000E-02
     -1.231 -0.3614E-05 -0.3121E-05  0.4000E-02  0.4000E-02
     -1.134 -0.1222E-03 -0.1129E-03  0.3988E-02  0.3989E-02
     -1.038  0.1283E-03  0.6651E-04  0.4000E-02  0.3995E-02
     -0.941  0.5364E-02  0.5154E-02  0.4517E-02  0.4492E-02
     -0.845  0.5118E-02  0.5327E-02  0.5011E-02  0.5006E-02
     -0.748 -0.2973E-05  0.5963E-04  0.5011E-02  0.5012E-02
     -0.652 -0.1077E-03 -0.1175E-03  0.5000E-02  0.5000E-02
     -0.556 -0.2358E-05 -0.2783E-05  0.5000E-02  0.5000E-02
     -0.459 -0.6457E-08 -0.8162E-08  0.5000E-02  0.5000E-02
     -0.363 -0.2546E-11 -0.3437E-11  0.5000E-02  0.5000E-02
     -0.266 -0.1371E-10 -0.1020E-10  0.5000E-02  0.5000E-02
     -0.170 -0.1734E-07 -0.1391E-07  0.5000E-02  0.5000E-02
     -0.073 -0.3320E-05 -0.2881E-05  0.5000E-02  0.5000E-02
      0.023 -0.8766E-04 -0.8304E-04  0.4991E-02  0.4992E-02
      0.119  0.1083E-03  0.6632E-04  0.5002E-02  0.4998E-02
      0.216  0.3534E-02  0.3450E-02  0.5342E-02  0.5331E-02
      0.312  0.5774E-02  0.5798E-02  0.5899E-02  0.5890E-02
      0.409  0.6309E-02  0.6299E-02  0.6508E-02  0.6497E-02
      0.505  0.4532E-02  0.4542E-02  0.6945E-02  0.6935E-02
      0.602  0.4940E-02  0.4989E-02  0.7421E-02  0.7416E-02
      0.698  0.2897E-02  0.2850E-02  0.7700E-02  0.7691E-02
      0.794  0.5386E-02  0.5279E-02  0.8220E-02  0.8200E-02
      0.891  0.8105E-02  0.8080E-02  0.9001E-02  0.8979E-02
      0.987  0.8162E-02  0.8260E-02  0.9788E-02  0.9776E-02
      1.084  0.2423E-02  0.2555E-02  0.1002E-01  0.1002E-01
      1.180 -0.1784E-03 -0.1807E-03  0.1000E-01  0.1000E-01
      1.277 -0.4592E-04 -0.4825E-04  0.1000E-01  0.1000E-01
      1.373 -0.1191E-05 -0.1250E-05  0.1000E-01  0.1000E-01
      1.469 -0.4682E-08 -0.4948E-08  0.1000E-01  0.1000E-01
      1.566 -0.2717E-11 -0.2908E-11  0.1000E-01  0.1000E-01
      1.662 -0.2336E-15 -0.2538E-15  0.1000E-01  0.1000E-01
      1.759  0.0000E+00  0.0000E+00  0.1000E-01  0.1000E-01
      1.855  0.0000E+00  0.0000E+00  0.1000E-01  0.1000E-01
      1.951  0.0000E+00  0.0000E+00  0.1000E-01  0.1000E-01
      2.048  0.0000E+00  0.0000E+00  0.1000E-01  0.1000E-01
      2.144  0.0000E+00  0.0000E+00  0.1000E-01  0.1000E-01
      2.241  0.0000E+00  0.0000E+00  0.1000E-01  0.1000E-01
      2.337  0.0000E+00  0.0000E+00  0.1000E-01  0.1000E-01
