    3    3 1000    2
  0.5974080E+03  0.1016000E-08  0.1176000E-08  0.1500000E-08  0.5000000E-15
  1.000000000000000E-004
  CAR 
 Beta12Borophene !The name of the system 
    8    9   10
 
  0.0000000E+00  0.0000000E+00  0.2500000E+00  0.1111111E+00
   1      -25.275475    -25.232512
   2      -13.064288    -13.048776
   3       -9.231824     -9.210103
   4       -7.205748     -7.111826
   5       -0.984014     -0.981036
   6        0.163198      0.166783
   7        0.518199      0.520516
   8        0.624905      0.625428
   9        0.948193      0.950427
  10        1.021545      1.022311
 
  0.3333333E+00  0.0000000E+00  0.2500000E+00  0.1111111E+00
   1      -25.275482    -25.232519
   2      -13.064295    -13.048783
   3       -9.231829     -9.210109
   4       -7.205751     -7.111829
   5       -0.939022     -0.935788
   6        0.236902      0.238649
   7        0.367131      0.369318
   8        0.766473      0.768683
   9        0.828518      0.831218
  10        0.929211      0.930270
 
 -0.3333333E+00  0.0000000E+00  0.2500000E+00  0.1111111E+00
   1      -25.275488    -25.232524
   2      -13.064293    -13.048781
   3       -9.231825     -9.210105
   4       -7.205749     -7.111827
   5       -0.938981     -0.935747
   6        0.217532      0.219320
   7        0.408090      0.410259
   8        0.730403      0.732280
   9        0.819814      0.822796
  10        0.937227      0.938539
 
  0.0000000E+00  0.3333333E+00  0.2500000E+00  0.1111111E+00
   1      -25.275476    -25.232513
   2      -13.064285    -13.048773
   3       -9.231823     -9.210103
   4       -7.205751     -7.111829
   5       -0.966867     -0.963798
   6        0.200528      0.203112
   7        0.369612      0.371498
   8        0.685254      0.688360
   9        0.751053      0.753373
  10        0.951045      0.951893
 
  0.3333333E+00  0.3333333E+00  0.2500000E+00  0.1111111E+00
   1      -25.275476    -25.232513
   2      -13.064280    -13.048768
   3       -9.231828     -9.210108
   4       -7.205749     -7.111827
   5       -0.924955     -0.921637
   6        0.345297      0.345718
   7        0.364133      0.366549
   8        0.535409      0.537143
   9        0.854300      0.857885
  10        0.940188      0.943442
 
 -0.3333333E+00  0.3333333E+00  0.2500000E+00  0.1111111E+00
   1      -25.275476    -25.232513
   2      -13.064281    -13.048769
   3       -9.231827     -9.210107
   4       -7.205747     -7.111825
   5       -0.924500     -0.921180
   6        0.245788      0.247052
   7        0.508929      0.511317
   8        0.546073      0.547038
   9        0.814864      0.817781
  10        0.947677      0.950765
 
  0.0000000E+00 -0.3333333E+00  0.2500000E+00  0.1111111E+00
   1      -25.275482    -25.232519
   2      -13.064280    -13.048768
   3       -9.231826     -9.210106
   4       -7.205751     -7.111830
   5       -0.966886     -0.963817
   6        0.211347      0.214076
   7        0.344549      0.346220
   8        0.706406      0.710101
   9        0.800293      0.802270
  10        0.875376      0.876406
 
  0.3333333E+00 -0.3333333E+00  0.2500000E+00  0.1111111E+00
   1      -25.275479    -25.232515
   2      -13.064281    -13.048769
   3       -9.231829     -9.210108
   4       -7.205748     -7.111826
   5       -0.924544     -0.921224
   6        0.257633      0.258849
   7        0.469018      0.471414
   8        0.557102      0.557905
   9        0.840085      0.843662
  10        0.943760      0.946506
 
 -0.3333333E+00 -0.3333333E+00  0.2500000E+00  0.1111111E+00
   1      -25.275468    -25.232504
   2      -13.064289    -13.048777
   3       -9.231828     -9.210108
   4       -7.205745     -7.111824
   5       -0.924937     -0.921619
   6        0.325896      0.326911
   7        0.377913      0.379802
   8        0.552537      0.554144
   9        0.850551      0.854010
  10        0.950041      0.953498
