       N       E                     dE             d eps       ncg     rms          rms(c)
DAV:   1     0.740734265084E+02    0.74073E+02   -0.11194E+03   360   0.320E+02
DAV:   2     0.923012040191E+01   -0.64843E+02   -0.62301E+02   616   0.797E+01
DAV:   3    -0.118670091402E+02   -0.21097E+02   -0.20077E+02   456   0.665E+01
DAV:   4    -0.128867688060E+02   -0.10198E+01   -0.10213E+01   476   0.158E+01
DAV:   5    -0.128942482981E+02   -0.74795E-02   -0.74783E-02   452   0.130E+00    0.138E+01
DAV:   6    -0.424268107527E+01    0.86516E+01   -0.23408E+01   394   0.295E+01    0.487E+00
DAV:   7    -0.107718929686E+02   -0.65292E+01   -0.46343E+00   414   0.104E+01    0.316E+00
DAV:   8    -0.116705920502E+02   -0.89870E+00   -0.35317E-01   426   0.398E+00    0.185E+00
DAV:   9    -0.131249118009E+02   -0.14543E+01   -0.74216E-01   404   0.435E+00    0.517E-01
DAV:  10    -0.133513680525E+02   -0.22646E+00   -0.83056E-02   566   0.129E+00    0.502E-01
DAV:  11    -0.135131135747E+02   -0.16175E+00   -0.65416E-03   394   0.448E-01    0.436E-01
DAV:  12    -0.138721158100E+02   -0.35900E+00   -0.81925E-03   404   0.429E-01    0.312E-01
DAV:  13    -0.141374590276E+02   -0.26534E+00   -0.92180E-03   472   0.372E-01    0.733E-02
DAV:  14    -0.141827239296E+02   -0.45265E-01   -0.27589E-03   422   0.255E-01    0.137E-01
DAV:  15    -0.141895709236E+02   -0.68470E-02   -0.14480E-03   510   0.175E-01    0.122E-01
DAV:  16    -0.141918609222E+02   -0.22900E-02   -0.48089E-04   394   0.119E-01    0.662E-02
DAV:  17    -0.141928389584E+02   -0.97804E-03   -0.21864E-04   388   0.802E-02    0.740E-02
DAV:  18    -0.141967778780E+02   -0.39389E-02   -0.45045E-04   390   0.882E-02    0.465E-02
DAV:  19    -0.141985841869E+02   -0.18063E-02   -0.52237E-05   402   0.445E-02    0.134E-02
DAV:  20    -0.141993124125E+02   -0.72823E-03   -0.22574E-05   392   0.286E-02    0.140E-02
DAV:  21    -0.141993538154E+02   -0.41403E-04   -0.49931E-06   418   0.137E-02    0.209E-03
DAV:  22    -0.141993738038E+02   -0.19988E-04   -0.20006E-06   424   0.102E-02    0.291E-03
DAV:  23    -0.141995135270E+02   -0.13972E-03   -0.16783E-06   392   0.806E-03    0.235E-03
DAV:  24    -0.141995976581E+02   -0.84131E-04   -0.10172E-06   396   0.495E-03    0.195E-03
DAV:  25    -0.141996138992E+02   -0.16241E-04   -0.21208E-07   418   0.278E-03    0.115E-03
DAV:  26    -0.141996175451E+02   -0.36459E-05   -0.11254E-07   404   0.202E-03    0.260E-04
DAV:  27    -0.141996202577E+02   -0.27126E-05   -0.36665E-08   408   0.105E-03    0.430E-04
DAV:  28    -0.141996232164E+02   -0.29586E-05   -0.20228E-08   384   0.680E-04    0.937E-05
DAV:  29    -0.141996249070E+02   -0.16906E-05   -0.25846E-08   418   0.596E-04    0.308E-04
DAV:  30    -0.141996255331E+02   -0.62613E-06   -0.78677E-09   450   0.360E-04
   1 F= -.14199626E+02 E0= -.14201333E+02  d E =-.141996E+02  mag=     0.0364
       N       E                     dE             d eps       ncg     rms          rms(c)
DAV:   1    -0.141097471484E+02    0.89878E-01   -0.15026E+01   386   0.321E+01    0.143E+00
DAV:   2    -0.140891067476E+02    0.20640E-01   -0.34102E-01   440   0.436E+00    0.554E-01
DAV:   3    -0.140848996057E+02    0.42071E-02   -0.18134E-02   450   0.929E-01    0.250E-01
DAV:   4    -0.140844681126E+02    0.43149E-03   -0.35582E-03   424   0.450E-01    0.125E-01
DAV:   5    -0.140843929720E+02    0.75141E-04   -0.71702E-04   402   0.203E-01    0.202E-01
DAV:   6    -0.140845375837E+02   -0.14461E-03   -0.17390E-04   384   0.884E-02    0.225E-02
DAV:   7    -0.140847461610E+02   -0.20858E-03   -0.41810E-05   418   0.588E-02    0.131E-02
DAV:   8    -0.140847958163E+02   -0.49655E-04   -0.85220E-06   458   0.238E-02    0.611E-03
DAV:   9    -0.140848464432E+02   -0.50627E-04   -0.11549E-05   420   0.200E-02    0.390E-03
DAV:  10    -0.140849032759E+02   -0.56833E-04   -0.35233E-06   418   0.916E-03    0.283E-03
DAV:  11    -0.140849585311E+02   -0.55255E-04   -0.64314E-06   408   0.111E-02    0.119E-03
DAV:  12    -0.140849826552E+02   -0.24124E-04   -0.13549E-06   470   0.487E-03    0.706E-04
DAV:  13    -0.140849976242E+02   -0.14969E-04   -0.74569E-07   424   0.387E-03    0.411E-04
DAV:  14    -0.140850051928E+02   -0.75686E-05   -0.25607E-07   428   0.244E-03    0.287E-04
DAV:  15    -0.140850096020E+02   -0.44092E-05   -0.10807E-07   462   0.170E-03    0.158E-04
DAV:  16    -0.140850116999E+02   -0.20979E-05   -0.43681E-08   454   0.102E-03    0.111E-04
DAV:  17    -0.140850129124E+02   -0.12125E-05   -0.16688E-08   460   0.564E-04    0.705E-05
DAV:  18    -0.140850135317E+02   -0.61927E-06   -0.77381E-09   388   0.379E-04
   2 F= -.14085014E+02 E0= -.14086721E+02  d E =0.114612E+00  mag=     0.0364
       N       E                     dE             d eps       ncg     rms          rms(c)
DAV:   1    -0.142311553211E+02   -0.14614E+00   -0.81351E+00   396   0.237E+01    0.118E+00
DAV:   2    -0.142162981098E+02    0.14857E-01   -0.24634E-01   470   0.349E+00    0.395E-01
DAV:   3    -0.142141841481E+02    0.21140E-02   -0.36320E-03   404   0.503E-01    0.239E-01
DAV:   4    -0.142120937182E+02    0.20904E-02   -0.31569E-03   384   0.425E-01    0.376E-01
DAV:   5    -0.142137671210E+02   -0.16734E-02   -0.10382E-03   384   0.228E-01    0.663E-02
DAV:   6    -0.142140864960E+02   -0.31938E-03   -0.15895E-04   432   0.834E-02    0.297E-02
DAV:   7    -0.142141800752E+02   -0.93579E-04   -0.21057E-05   406   0.424E-02    0.155E-02
DAV:   8    -0.142142182454E+02   -0.38170E-04   -0.11276E-05   382   0.197E-02    0.350E-03
DAV:   9    -0.142142347035E+02   -0.16458E-04   -0.10281E-06   430   0.708E-03    0.191E-03
DAV:  10    -0.142142703792E+02   -0.35676E-04   -0.29563E-06   378   0.736E-03    0.358E-03
DAV:  11    -0.142142932606E+02   -0.22881E-04   -0.24860E-06   418   0.579E-03    0.108E-03
DAV:  12    -0.142143036669E+02   -0.10406E-04   -0.48318E-07   448   0.306E-03    0.115E-03
DAV:  13    -0.142143150738E+02   -0.11407E-04   -0.71609E-07   402   0.300E-03    0.526E-04
DAV:  14    -0.142143185226E+02   -0.34488E-05   -0.89116E-08   496   0.132E-03    0.261E-04
DAV:  15    -0.142143217160E+02   -0.31934E-05   -0.66178E-08   406   0.104E-03    0.178E-04
DAV:  16    -0.142143233437E+02   -0.16277E-05   -0.40395E-08   460   0.758E-04    0.594E-05
DAV:  17    -0.142143239165E+02   -0.57283E-06   -0.50982E-09   478   0.388E-04
   3 F= -.14214324E+02 E0= -.14216032E+02  d E =-.146984E-01  mag=     0.0364
       N       E                     dE             d eps       ncg     rms          rms(c)
DAV:   1    -0.142143245033E+02   -0.11595E-05   -0.92041E-06   402   0.251E-02    0.119E-03
DAV:   2    -0.142143245939E+02   -0.90638E-07   -0.28015E-07   460   0.385E-03
   4 F= -.14214325E+02 E0= -.14216033E+02  d E =-.146991E-01  mag=     0.0364
       N       E                     dE             d eps       ncg     rms          rms(c)
DAV:   1    -0.142148914081E+02   -0.56690E-03   -0.56319E-02   360   0.208E+00    0.517E-02
DAV:   2    -0.142149250466E+02   -0.33639E-04   -0.65821E-04   418   0.208E-01    0.297E-02
DAV:   3    -0.142149199908E+02    0.50558E-05   -0.17414E-05   512   0.337E-02    0.167E-02
DAV:   4    -0.142149130884E+02    0.69024E-05   -0.12627E-05   398   0.271E-02    0.304E-02
DAV:   5    -0.142149214436E+02   -0.83552E-05   -0.38389E-06   378   0.133E-02    0.381E-03
DAV:   6    -0.142149256442E+02   -0.42006E-05   -0.93164E-07   410   0.855E-03    0.150E-03
DAV:   7    -0.142149282237E+02   -0.25795E-05   -0.16501E-07   420   0.341E-03    0.852E-04
DAV:   8    -0.142149319183E+02   -0.36946E-05   -0.21482E-07   394   0.279E-03    0.434E-04
DAV:   9    -0.142149345059E+02   -0.25876E-05   -0.93752E-08   434   0.165E-03    0.346E-04
DAV:  10    -0.142149381180E+02   -0.36121E-05   -0.19810E-07   416   0.191E-03    0.228E-04
DAV:  11    -0.142149396003E+02   -0.14823E-05   -0.47997E-08   486   0.105E-03    0.125E-04
DAV:  12    -0.142149411035E+02   -0.15032E-05   -0.45413E-08   418   0.816E-04    0.830E-05
DAV:  13    -0.142149418708E+02   -0.76731E-06   -0.21334E-08   416   0.562E-04
   5 F= -.14214942E+02 E0= -.14216650E+02  d E =-.617277E-03  mag=     0.0364
       N       E                     dE             d eps       ncg     rms          rms(c)
DAV:   1    -0.142149621852E+02   -0.21082E-04   -0.30422E-03   408   0.483E-01    0.121E-02
DAV:   2    -0.142149640908E+02   -0.19056E-05   -0.39372E-05   386   0.502E-02    0.704E-03
DAV:   3    -0.142149637999E+02    0.29085E-06   -0.98325E-07   420   0.806E-03
   6 F= -.14214964E+02 E0= -.14216672E+02  d E =-.639206E-03  mag=     0.0364
       N       E                     dE             d eps       ncg     rms          rms(c)
DAV:   1    -0.142147988886E+02    0.16520E-03   -0.52852E-02   380   0.200E+00    0.495E-02
DAV:   2    -0.142148696560E+02   -0.70767E-04   -0.10820E-03   416   0.255E-01    0.346E-02
DAV:   3    -0.142148550571E+02    0.14599E-04   -0.19326E-05   412   0.395E-02    0.212E-02
DAV:   4    -0.142148368821E+02    0.18175E-04   -0.25409E-05   388   0.413E-02    0.430E-02
DAV:   5    -0.142148506060E+02   -0.13724E-04   -0.85653E-06   386   0.211E-02    0.402E-03
DAV:   6    -0.142148579670E+02   -0.73610E-05   -0.11154E-06   388   0.118E-02    0.164E-03
DAV:   7    -0.142148598546E+02   -0.18876E-05   -0.17469E-07   398   0.353E-03    0.796E-04
DAV:   8    -0.142148624191E+02   -0.25645E-05   -0.14031E-07   392   0.259E-03    0.421E-04
DAV:   9    -0.142148639595E+02   -0.15404E-05   -0.45262E-08   458   0.141E-03    0.280E-04
DAV:  10    -0.142148674560E+02   -0.34965E-05   -0.19334E-07   420   0.183E-03    0.212E-04
DAV:  11    -0.142148687910E+02   -0.13350E-05   -0.45737E-08   452   0.108E-03    0.119E-04
DAV:  12    -0.142148701518E+02   -0.13608E-05   -0.39868E-08   418   0.850E-04    0.805E-05
DAV:  13    -0.142148709387E+02   -0.78690E-06   -0.23740E-08   458   0.625E-04
   7 F= -.14214871E+02 E0= -.14216579E+02  d E =0.928613E-04  mag=     0.0364
       N       E                     dE             d eps       ncg     rms          rms(c)
DAV:   1    -0.142150741605E+02   -0.20401E-03   -0.16804E-02   408   0.112E+00    0.277E-02
DAV:   2    -0.142150968702E+02   -0.22710E-04   -0.34010E-04   414   0.143E-01    0.194E-02
DAV:   3    -0.142150925599E+02    0.43103E-05   -0.59602E-06   448   0.221E-02    0.113E-02
DAV:   4    -0.142150916508E+02    0.90915E-06   -0.76646E-06   402   0.244E-02
   8 F= -.14215092E+02 E0= -.14216797E+02  d E =-.127851E-03  mag=     0.0364
       N       E                     dE             d eps       ncg     rms          rms(c)
DAV:   1    -0.142150917587E+02    0.80128E-06   -0.51449E-06   438   0.201E-02    0.489E-03
DAV:   2    -0.142150897715E+02    0.19872E-05   -0.11984E-06   380   0.696E-03    0.149E-02
DAV:   3    -0.142150920189E+02   -0.22474E-05   -0.66054E-07   380   0.492E-03    0.861E-04
DAV:   4    -0.142150930387E+02   -0.10198E-05   -0.78542E-08   396   0.323E-03    0.297E-04
DAV:   5    -0.142150934868E+02   -0.44803E-06   -0.15240E-08   404   0.899E-04
   9 F= -.14215093E+02 E0= -.14216801E+02  d E =-.129687E-03  mag=     0.0364
       N       E                     dE             d eps       ncg     rms          rms(c)
DAV:   1    -0.142150940508E+02   -0.10120E-05   -0.71766E-07   392   0.735E-03    0.222E-04
DAV:   2    -0.142150943575E+02   -0.30667E-06   -0.18545E-08   420   0.988E-04
  10 F= -.14215094E+02 E0= -.14216802E+02  d E =-.130558E-03  mag=     0.0364
       N       E                     dE             d eps       ncg     rms          rms(c)
DAV:   1    -0.142150945197E+02   -0.46895E-06   -0.20335E-07   400   0.390E-03    0.304E-04
DAV:   2    -0.142150947604E+02   -0.24062E-06   -0.82652E-09   380   0.632E-04
  11 F= -.14215095E+02 E0= -.14216801E+02  d E =-.130960E-03  mag=     0.0364
       N       E                     dE             d eps       ncg     rms          rms(c)
DAV:   1    -0.142151077504E+02   -0.13231E-04   -0.64040E-04   380   0.217E-01    0.567E-03
DAV:   2    -0.142151082567E+02   -0.50631E-06   -0.75023E-06   392   0.228E-02
  12 F= -.14215108E+02 E0= -.14216816E+02  d E =-.134963E-04  mag=     0.0364
       N       E                     dE             d eps       ncg     rms          rms(c)
DAV:   1    -0.142151401580E+02   -0.32408E-04   -0.57310E-03   386   0.651E-01    0.182E-02
DAV:   2    -0.142151413314E+02   -0.11734E-05   -0.67903E-05   426   0.685E-02    0.120E-02
DAV:   3    -0.142151381427E+02    0.31887E-05   -0.28521E-06   390   0.134E-02    0.174E-02
DAV:   4    -0.142151405575E+02   -0.24148E-05   -0.21310E-06   380   0.958E-03    0.801E-03
DAV:   5    -0.142151415441E+02   -0.98661E-06   -0.67452E-07   406   0.727E-03
  13 F= -.14215142E+02 E0= -.14216850E+02  d E =-.467837E-04  mag=     0.0364
       N       E                     dE             d eps       ncg     rms          rms(c)
DAV:   1    -0.142151401203E+02    0.43714E-06   -0.23066E-02   406   0.131E+00    0.339E-02
DAV:   2    -0.142151504097E+02   -0.10289E-04   -0.27932E-04   412   0.139E-01    0.206E-02
DAV:   3    -0.142151474021E+02    0.30076E-05   -0.71203E-06   468   0.247E-02    0.971E-03
DAV:   4    -0.142151473614E+02    0.40708E-07   -0.61569E-06   410   0.202E-02
  14 F= -.14215147E+02 E0= -.14216867E+02  d E =-.526011E-04  mag=     0.0364
       N       E                     dE             d eps       ncg     rms          rms(c)
DAV:   1    -0.142151508792E+02   -0.34771E-05   -0.26184E-05   382   0.433E-02    0.321E-03
DAV:   2    -0.142151516647E+02   -0.78542E-06   -0.61997E-07   378   0.600E-03
  15 F= -.14215152E+02 E0= -.14216870E+02  d E =-.430326E-05  mag=     0.0364
       N       E                     dE             d eps       ncg     rms          rms(c)
DAV:   1    -0.142151582818E+02   -0.74025E-05   -0.21101E-04   376   0.124E-01    0.438E-03
DAV:   2    -0.142151590566E+02   -0.77487E-06   -0.26652E-06   376   0.128E-02
  16 F= -.14215159E+02 E0= -.14216874E+02  d E =-.116952E-04  mag=     0.0364
       N       E                     dE             d eps       ncg     rms          rms(c)
DAV:   1    -0.142151698752E+02   -0.11593E-04   -0.84471E-04   378   0.249E-01    0.922E-03
DAV:   2    -0.142151688837E+02    0.99151E-06   -0.10309E-05   378   0.253E-02    0.130E-02
DAV:   3    -0.142151697209E+02   -0.83721E-06   -0.93716E-07   378   0.580E-03
  17 F= -.14215170E+02 E0= -.14216869E+02  d E =-.223595E-04  mag=     0.0364
       N       E                     dE             d eps       ncg     rms          rms(c)
DAV:   1    -0.142151889858E+02   -0.20102E-04   -0.33269E-03   374   0.494E-01    0.144E-02
DAV:   2    -0.142151895164E+02   -0.53061E-06   -0.36474E-05   392   0.483E-02    0.909E-03
DAV:   3    -0.142151888806E+02    0.63578E-06   -0.15094E-06   382   0.100E-02
  18 F= -.14215189E+02 E0= -.14216913E+02  d E =-.415192E-04  mag=     0.0364
       N       E                     dE             d eps       ncg     rms          rms(c)
DAV:   1    -0.142151939913E+02   -0.44749E-05   -0.13481E-02   376   0.993E-01    0.296E-02
DAV:   2    -0.142151941977E+02   -0.20643E-06   -0.15731E-04   376   0.996E-02    0.297E-02
DAV:   3    -0.142151900765E+02    0.41212E-05   -0.90865E-06   376   0.188E-02    0.301E-02
DAV:   4    -0.142151971046E+02   -0.70281E-05   -0.60537E-06   372   0.190E-02    0.670E-03
DAV:   5    -0.142151993765E+02   -0.22719E-05   -0.17303E-06   402   0.112E-02    0.167E-03
DAV:   6    -0.142152013449E+02   -0.19684E-05   -0.18204E-07   414   0.401E-03    0.114E-03
DAV:   7    -0.142152048515E+02   -0.35066E-05   -0.16358E-07   430   0.246E-03    0.659E-04
DAV:   8    -0.142152080259E+02   -0.31744E-05   -0.10720E-07   444   0.156E-03    0.347E-04
DAV:   9    -0.142152115130E+02   -0.34872E-05   -0.12893E-07   444   0.155E-03    0.291E-04
DAV:  10    -0.142152148227E+02   -0.33097E-05   -0.17205E-07   434   0.166E-03    0.126E-04
DAV:  11    -0.142152163717E+02   -0.15490E-05   -0.45627E-08   454   0.885E-04    0.109E-04
DAV:  12    -0.142152173065E+02   -0.93484E-06   -0.18965E-08   436   0.608E-04
  19 F= -.14215217E+02 E0= -.14216925E+02  d E =-.699451E-04  mag=     0.0364
       N       E                     dE             d eps       ncg     rms          rms(c)
DAV:   1    -0.142152439049E+02   -0.27533E-04   -0.49655E-04   464   0.190E-01    0.528E-03
DAV:   2    -0.142152442240E+02   -0.31916E-06   -0.71114E-06   458   0.205E-02
  20 F= -.14215244E+02 E0= -.14216952E+02  d E =-.269175E-04  mag=     0.0364
       N       E                     dE             d eps       ncg     rms          rms(c)
DAV:   1    -0.142153101391E+02   -0.66234E-04   -0.44461E-03   384   0.570E-01    0.164E-02
DAV:   2    -0.142153110157E+02   -0.87655E-06   -0.61416E-05   414   0.619E-02    0.873E-03
DAV:   3    -0.142153106643E+02    0.35139E-06   -0.11550E-06   440   0.985E-03
  21 F= -.14215311E+02 E0= -.14217016E+02  d E =-.933578E-04  mag=     0.0363
       N       E                     dE             d eps       ncg     rms          rms(c)
DAV:   1    -0.142153535048E+02   -0.42489E-04   -0.17715E-02   382   0.114E+00    0.336E-02
DAV:   2    -0.142153492597E+02    0.42451E-05   -0.26045E-04   380   0.127E-01    0.367E-02
DAV:   3    -0.142153483566E+02    0.90309E-06   -0.14560E-05   380   0.245E-02    0.350E-02
DAV:   4    -0.142153558369E+02   -0.74803E-05   -0.53997E-06   380   0.179E-02    0.844E-03
DAV:   5    -0.142153569184E+02   -0.10815E-05   -0.34227E-06   426   0.168E-02    0.157E-03
DAV:   6    -0.142153575859E+02   -0.66751E-06   -0.45443E-07   432   0.566E-03
  22 F= -.14215358E+02 E0= -.14217067E+02  d E =-.140279E-03  mag=     0.0364
       N       E                     dE             d eps       ncg     rms          rms(c)
DAV:   1    -0.142153901907E+02   -0.33272E-04   -0.85410E-04   390   0.249E-01    0.608E-03
DAV:   2    -0.142153910876E+02   -0.89688E-06   -0.11214E-05   430   0.268E-02    0.395E-03
DAV:   3    -0.142153912771E+02   -0.18955E-06   -0.34491E-07   390   0.468E-03
  23 F= -.14215391E+02 E0= -.14217093E+02  d E =-.336912E-04  mag=     0.0364
       N       E                     dE             d eps       ncg     rms          rms(c)
DAV:   1    -0.142154601971E+02   -0.69110E-04   -0.76341E-03   374   0.742E-01    0.192E-02
DAV:   2    -0.142154616747E+02   -0.14776E-05   -0.93283E-05   372   0.781E-02    0.161E-02
DAV:   3    -0.142154586058E+02    0.30689E-05   -0.39313E-06   374   0.137E-02    0.215E-02
DAV:   4    -0.142154614868E+02   -0.28810E-05   -0.27114E-06   374   0.122E-02    0.588E-03
DAV:   5    -0.142154628269E+02   -0.13400E-05   -0.10404E-06   368   0.951E-03    0.117E-03
DAV:   6    -0.142154637523E+02   -0.92543E-06   -0.12752E-07   448   0.327E-03
  24 F= -.14215464E+02 E0= -.14217172E+02  d E =-.106166E-03  mag=     0.0364
       N       E                     dE             d eps       ncg     rms          rms(c)
DAV:   1    -0.142155011790E+02   -0.38352E-04   -0.30619E-02   368   0.149E+00    0.353E-02
DAV:   2    -0.142155191271E+02   -0.17948E-04   -0.38767E-04   382   0.160E-01    0.220E-02
DAV:   3    -0.142155159306E+02    0.31964E-05   -0.91751E-06   406   0.270E-02    0.117E-02
DAV:   4    -0.142155123967E+02    0.35340E-05   -0.80190E-06   392   0.230E-02    0.204E-02
DAV:   5    -0.142155155594E+02   -0.31627E-05   -0.22916E-06   378   0.105E-02    0.310E-03
DAV:   6    -0.142155179096E+02   -0.23502E-05   -0.21731E-07   376   0.599E-03    0.140E-03
DAV:   7    -0.142155205293E+02   -0.26197E-05   -0.16915E-07   428   0.336E-03    0.540E-04
DAV:   8    -0.142155233163E+02   -0.27870E-05   -0.11620E-07   428   0.241E-03    0.453E-04
DAV:   9    -0.142155273125E+02   -0.39962E-05   -0.20056E-07   436   0.227E-03    0.279E-04
DAV:  10    -0.142155301695E+02   -0.28570E-05   -0.16027E-07   448   0.192E-03    0.169E-04
DAV:  11    -0.142155315826E+02   -0.14131E-05   -0.40618E-08   452   0.978E-04    0.121E-04
DAV:  12    -0.142155329336E+02   -0.13510E-05   -0.37423E-08   426   0.842E-04    0.680E-05
DAV:  13    -0.142155336372E+02   -0.70359E-06   -0.21299E-08   490   0.608E-04
  25 F= -.14215534E+02 E0= -.14217241E+02  d E =-.176051E-03  mag=     0.0364
       N       E                     dE             d eps       ncg     rms          rms(c)
DAV:   1    -0.142155452035E+02   -0.12270E-04   -0.64733E-04   430   0.214E-01    0.505E-03
DAV:   2    -0.142155458777E+02   -0.67418E-06   -0.10358E-05   462   0.251E-02    0.297E-03
DAV:   3    -0.142155458741E+02    0.36101E-08   -0.13275E-07   426   0.339E-03
  26 F= -.14215546E+02 E0= -.14217254E+02  d E =-.122369E-04  mag=     0.0364
       N       E                     dE             d eps       ncg     rms          rms(c)
DAV:   1    -0.142155523514E+02   -0.64737E-05   -0.31836E-03   376   0.475E-01    0.114E-02
DAV:   2    -0.142155547783E+02   -0.24269E-05   -0.51037E-05   414   0.562E-02    0.737E-03
DAV:   3    -0.142155533946E+02    0.13836E-05   -0.10037E-06   380   0.815E-03    0.959E-03
DAV:   4    -0.142155540354E+02   -0.64074E-06   -0.56305E-07   380   0.496E-03
  27 F= -.14215554E+02 E0= -.14217269E+02  d E =-.203982E-04  mag=     0.0364
       N       E                     dE             d eps       ncg     rms          rms(c)
DAV:   1    -0.142155619725E+02   -0.85779E-05   -0.35321E-04   388   0.156E-01    0.339E-03
DAV:   2    -0.142155620063E+02   -0.33742E-07   -0.39386E-06   470   0.156E-02
  28 F= -.14215562E+02 E0= -.14217270E+02  d E =-.797089E-05  mag=     0.0364
       N       E                     dE             d eps       ncg     rms          rms(c)
DAV:   1    -0.142155723665E+02   -0.10394E-04   -0.32929E-03   384   0.477E-01    0.102E-02
DAV:   2    -0.142155740015E+02   -0.16350E-05   -0.42129E-05   384   0.499E-02    0.694E-03
DAV:   3    -0.142155728963E+02    0.11052E-05   -0.80769E-07   382   0.739E-03    0.796E-03
DAV:   4    -0.142155730988E+02   -0.20249E-06   -0.53990E-07   376   0.487E-03
  29 F= -.14215573E+02 E0= -.14217289E+02  d E =-.190634E-04  mag=     0.0364
       N       E                     dE             d eps       ncg     rms          rms(c)
DAV:   1    -0.142155753386E+02   -0.24423E-05   -0.64846E-04   376   0.211E-01    0.439E-03
DAV:   2    -0.142155757121E+02   -0.37349E-06   -0.74985E-06   438   0.215E-02
  30 F= -.14215576E+02 E0= -.14217285E+02  d E =-.216767E-04  mag=     0.0364
       N       E                     dE             d eps       ncg     rms          rms(c)
DAV:   1    -0.142155911385E+02   -0.15800E-04   -0.46007E-04   398   0.182E-01    0.598E-03
DAV:   2    -0.142155910616E+02    0.76904E-07   -0.10014E-05   388   0.255E-02    0.711E-03
DAV:   3    -0.142155911238E+02   -0.62214E-07   -0.43807E-07   376   0.436E-03
  31 F= -.14215591E+02 E0= -.14217291E+02  d E =-.154117E-04  mag=     0.0364
       N       E                     dE             d eps       ncg     rms          rms(c)
DAV:   1    -0.142155966321E+02   -0.55706E-05   -0.43474E-04   370   0.177E-01    0.579E-03
DAV:   2    -0.142155968572E+02   -0.22506E-06   -0.87993E-06   380   0.241E-02
  32 F= -.14215597E+02 E0= -.14217301E+02  d E =-.211451E-04  mag=     0.0364
       N       E                     dE             d eps       ncg     rms          rms(c)
DAV:   1    -0.142155966784E+02   -0.46260E-07   -0.30693E-06   374   0.144E-02    0.633E-03
DAV:   2    -0.142155937096E+02    0.29688E-05   -0.17679E-06   374   0.854E-03    0.182E-02
DAV:   3    -0.142155965457E+02   -0.28361E-05   -0.10040E-06   374   0.616E-03    0.153E-03
DAV:   4    -0.142155979743E+02   -0.14286E-05   -0.17903E-07   412   0.531E-03    0.363E-04
DAV:   5    -0.142155983910E+02   -0.41667E-06   -0.23068E-08   472   0.130E-03
  33 F= -.14215598E+02 E0= -.14217306E+02  d E =-.226789E-04  mag=     0.0364
       N       E                     dE             d eps       ncg     rms          rms(c)
DAV:   1    -0.142155989249E+02   -0.95055E-06   -0.30650E-07   430   0.464E-03    0.177E-04
DAV:   2    -0.142155992264E+02   -0.30150E-06   -0.87539E-09   468   0.658E-04
  34 F= -.14215599E+02 E0= -.14217307E+02  d E =-.235143E-04  mag=     0.0364
       N       E                     dE             d eps       ncg     rms          rms(c)
DAV:   1    -0.142156011287E+02   -0.22039E-05   -0.13299E-05   402   0.319E-02    0.923E-04
DAV:   2    -0.142156013565E+02   -0.22772E-06   -0.15731E-07   384   0.308E-03
  35 F= -.14215601E+02 E0= -.14217308E+02  d E =-.213010E-05  mag=     0.0364
