 vasp.5.3.3 18Dez12 (build Aug 26 2015 16:06:49) complex                        
  
 executed on             LinuxIFC date 2020.05.07  16:12:40
 running on    4 total cores
 distrk:  each k-point on    4 cores,    1 groups
 distr:  one band on NCORES_PER_BAND=   4 cores,    1 groups


--------------------------------------------------------------------------------------------------------


 INCAR:
 POTCAR:    PAW_PBE O 08Apr2002                   
 POTCAR:    PAW_PBE H 15Jun2001                   
 POTCAR:    PAW_PBE O 08Apr2002                   
   SHA256 =  818f92134a0a090dccd8ba1447fa70422a3b330e708bb4f08108d8ae51209ddf O/
   COPYR  = (c) Copyright 08Apr2002 Georg Kresse                                
   COPYR  = This file is part of the software VASP. Any use, copying, and all ot
   COPYR  = If you do not have a valid VASP license, you may not use, copy or di
   VRHFIN =O: s2p4                                                              
   LEXCH  = PE                                                                  
   EATOM  =   432.3788 eV,   31.7789 Ry                                         
                                                                                
   TITEL  = PAW_PBE O 08Apr2002                                                 
   LULTRA =        F    use ultrasoft PP ?                                      
   IUNSCR =        1    unscreen: 0-lin 1-nonlin 2-no                           
   RPACOR =    1.200    partial core radius                                     
   POMASS =   16.000; ZVAL   =    6.000    mass and valenz                      
   RCORE  =    1.520    outmost cutoff radius                                   
   RWIGS  =    1.550; RWIGS  =    0.820    wigner-seitz radius (au A)           
   ENMAX  =  400.000; ENMIN  =  300.000 eV                                      
   ICORE  =        2    local potential                                         
   LCOR   =        T    correct aug charges                                     
   LPAW   =        T    paw PP                                                  
   EAUG   =  605.392                                                            
   DEXC   =    0.000                                                            
   RMAX   =    1.553    core radius for proj-oper                               
   RAUG   =    1.300    factor for augmentation sphere                          
   RDEP   =    1.550    radius for radial grids                                 
   RDEPT  =    1.329    core radius for aug-charge                              
                                                                                
   Atomic configuration                                                         
    4 entries                                                                   
     n  l   j            E        occ.                                          
     1  0  0.50      -514.6923   2.0000                                         
     2  0  0.50       -23.9615   2.0000                                         
     2  1  0.50        -9.0305   4.0000                                         
     3  2  1.50        -9.5241   0.0000                                         
   Description                                                                  
     l       E           TYP  RCUT    TYP  RCUT                                 
     0    -23.9615318     23  1.200                                             
     0     -9.5240782     23  1.200                                             
     1     -9.0304911     23  1.520                                             
     1      8.1634956     23  1.520                                             
     2     -9.5240782      7  1.500                                             
  local pseudopotential read in
  partial core-charges read in
  partial kinetic energy density read in
  kinetic energy density of atom read in
  atomic valenz-charges read in
  non local Contribution for L=           0  read in
    real space projection operators read in
  non local Contribution for L=           0  read in
    real space projection operators read in
  non local Contribution for L=           1  read in
    real space projection operators read in
  non local Contribution for L=           1  read in
    real space projection operators read in
    PAW grid and wavefunctions read in
 
   number of l-projection  operators is LMAX  =           4
   number of lm-projection operators is LMMAX =           8
 
 POTCAR:    PAW_PBE H 15Jun2001                   
   SHA256 =  030f79b5d3ab3cf0e668861823c8fb652ff669f3e15e46930bd03bfd63a607b6 H/
   COPYR  = (c) Copyright 15Jun2001 Georg Kresse                                
   COPYR  = This file is part of the software VASP. Any use, copying, and all ot
   COPYR  = If you do not have a valid VASP license, you may not use, copy or di
   VRHFIN =H: ultrasoft test                                                    
   LEXCH  = PE                                                                  
   EATOM  =    12.4884 eV,    0.9179 Ry                                         
                                                                                
   TITEL  = PAW_PBE H 15Jun2001                                                 
   LULTRA =        F    use ultrasoft PP ?                                      
   IUNSCR =        0    unscreen: 0-lin 1-nonlin 2-no                           
   RPACOR =    0.000    partial core radius                                     
   POMASS =    1.000; ZVAL   =    1.000    mass and valenz                      
   RCORE  =    1.100    outmost cutoff radius                                   
   RWIGS  =    0.700; RWIGS  =    0.370    wigner-seitz radius (au A)           
   ENMAX  =  250.000; ENMIN  =  200.000 eV                                      
   RCLOC  =    0.701    cutoff for local pot                                    
   LCOR   =        T    correct aug charges                                     
   LPAW   =        T    paw PP                                                  
   EAUG   =  400.000                                                            
   RMAX   =    1.123    core radius for proj-oper                               
   RAUG   =    1.200    factor for augmentation sphere                          
   RDEP   =    1.112    radius for radial grids                                 
   RDEPT  =    0.926    core radius for aug-charge                              
                                                                                
   Atomic configuration                                                         
    2 entries                                                                   
     n  l   j            E        occ.                                          
     1  0  0.50        -6.4927   1.0000                                         
     2  1  0.50        -3.4015   0.0000                                         
   Description                                                                  
     l       E           TYP  RCUT    TYP  RCUT                                 
     0     -6.4927494     23  1.100                                             
     0      6.8029130     23  1.100                                             
     1     -4.0817478     23  1.100                                             
  local pseudopotential read in
  atomic valenz-charges read in
  non local Contribution for L=           0  read in
    real space projection operators read in
  non local Contribution for L=           0  read in
    real space projection operators read in
  non local Contribution for L=           1  read in
    real space projection operators read in
    PAW grid and wavefunctions read in
 
   number of l-projection  operators is LMAX  =           3
   number of lm-projection operators is LMMAX =           5
 

 ----------------------------------------------------------------------------- 
|                                                                             |
|  ADVICE TO THIS USER RUNNING 'VASP/VAMP'   (HEAR YOUR MASTER'S VOICE ...):  |
|                                                                             |
|      You have a (more or less) 'small supercell' and for smaller cells      |
|      it is recommended  to use the reciprocal-space projection scheme!      |
|      The real space optimization is not  efficient for small cells and it   |
|      is also less accurate ...                                              |
|      Therefore set LREAL=.FALSE. in the  INCAR file                         |
|                                                                             |
 ----------------------------------------------------------------------------- 

 Optimization of the real space projectors (new method)

 maximal supplied QI-value         = 24.76
 optimisation between [QCUT,QGAM] = [ 11.39, 22.77] = [ 36.31,145.25] Ry 
 Optimized for a Real-space Cutoff    1.00 Angstroem

   l    n(q)    QCUT    max X(q) W(low)/X(q) W(high)/X(q)  e(spline) 
   0      7    11.387    20.381    0.39E-03    0.13E-02    0.15E-06
   0      7    11.387    15.268    0.42E-03    0.14E-02    0.17E-06
   1      6    11.387     5.964    0.41E-03    0.11E-02    0.17E-06
   1      6    11.387     5.382    0.39E-03    0.87E-03    0.15E-06
 Optimization of the real space projectors (new method)

 maximal supplied QI-value         = 34.20
 optimisation between [QCUT,QGAM] = [ 11.29, 22.57] = [ 35.68,142.71] Ry 
 Optimized for a Real-space Cutoff    1.16 Angstroem

   l    n(q)    QCUT    max X(q) W(low)/X(q) W(high)/X(q)  e(spline) 
   0      8    11.287    19.460    0.40E-03    0.73E-03    0.16E-06
   0      8    11.287    12.209    0.38E-03    0.70E-03    0.15E-06
   1      7    11.287     4.655    0.22E-03    0.25E-04    0.22E-06
  PAW_PBE O 08Apr2002                   :
 energy of atom  1       EATOM= -432.3788
 kinetic energy error for atom=    0.0224 (will be added to EATOM!!)
  PAW_PBE H 15Jun2001                   :
 energy of atom  2       EATOM=  -12.4884
 kinetic energy error for atom=    0.0020 (will be added to EATOM!!)
 
 
 POSCAR: MoleculeAdsorption                      
  positions in direct lattice
  velocities in cartesian coordinates
  No initial velocities read in
 exchange correlation table for  LEXCH =        8
   RHO(1)=    0.500       N(1)  =     2000
   RHO(2)=  100.500       N(2)  =     4000
 


--------------------------------------------------------------------------------------------------------


 ion  position               nearest neighbor table
   1  0.000  0.000  0.000-   2 0.99   3 0.99
   2  0.097  0.003  0.001-   1 0.99
   3  0.972  0.077  0.019-   1 0.99
 
  LATTYP: Found a simple orthorhombic cell.
 ALAT       =    10.1600000000
 B/A-ratio  =     1.1574803150
 C/A-ratio  =     1.4763779528
  
  Lattice vectors:
  
 A1 = (  10.1600000000,   0.0000000000,   0.0000000000)
 A2 = (   0.0000000000,  11.7600000000,   0.0000000000)
 A3 = (   0.0000000000,   0.0000000000,  15.0000000000)


Analysis of symmetry for initial positions (statically):
=====================================================================
 Subroutine PRICEL returns:
 Original cell was already a primitive cell.
 

 Routine SETGRP: Setting up the symmetry group for a 
 simple orthorhombic supercell.


 Subroutine GETGRP returns: Found  1 space group operations
 (whereof  1 operations were pure point group operations)
 out of a pool of  8 trial point group operations.


The static configuration has the point symmetry C_1 .


Analysis of symmetry for dynamics (positions and initial velocities):
=====================================================================
 Subroutine PRICEL returns:
 Original cell was already a primitive cell.
 

 Routine SETGRP: Setting up the symmetry group for a 
 simple orthorhombic supercell.


 Subroutine GETGRP returns: Found  1 space group operations
 (whereof  1 operations were pure point group operations)
 out of a pool of  8 trial point group operations.


The dynamic configuration has the point symmetry C_1 .


Analysis of magnetic symmetry:
=====================================================================

 Subroutine MAGSYM returns: Found  1 space group operations
 (whereof  1 operations were pure point group operations)
 out of a pool of  1 trial space group operations
 (whereof  1 operations were pure point group operations)
 and found also     1 'primitive' translations


The magnetic configuration has the point symmetry C_1 .


 irot  :   1
 --------------------------------------------------------------------
 isymop:   1   0   0
           0   1   0
           0   0   1

 gtrans:     0.0000000     0.0000000     0.0000000

 ptrans:     0.0000000     0.0000000     0.0000000
 rotmap:
 (   1->   1)  (   2->   2)  (   3->   3) 
 
 
 KPOINTS: K-Points                                

Automatic generation of k-mesh.
Space group operators:
 irot       det(A)        alpha          n_x          n_y          n_z        tau_x        tau_y        tau_z
    1     1.000000     0.000000     1.000000     0.000000     0.000000     0.000000     0.000000     0.000000
 
 Subroutine IBZKPT returns following result:
 ===========================================
 
 Found      9 irreducible k-points:
 
 Following reciprocal coordinates:
            Coordinates               Weight
  0.000000  0.000000  0.250000      2.000000
  0.333333  0.000000  0.250000      2.000000
 -0.333333  0.000000  0.250000      2.000000
  0.000000  0.333333  0.250000      2.000000
  0.333333  0.333333  0.250000      2.000000
 -0.333333  0.333333  0.250000      2.000000
  0.000000 -0.333333  0.250000      2.000000
  0.333333 -0.333333  0.250000      2.000000
 -0.333333 -0.333333  0.250000      2.000000
 
 Following cartesian coordinates:
            Coordinates               Weight
  0.000000  0.000000  0.016667      2.000000
  0.032808  0.000000  0.016667      2.000000
 -0.032808  0.000000  0.016667      2.000000
  0.000000  0.028345  0.016667      2.000000
  0.032808  0.028345  0.016667      2.000000
 -0.032808  0.028345  0.016667      2.000000
  0.000000 -0.028345  0.016667      2.000000
  0.032808 -0.028345  0.016667      2.000000
 -0.032808 -0.028345  0.016667      2.000000
 


--------------------------------------------------------------------------------------------------------




 Dimension of arrays:
   k-points           NKPTS =      9   k-points in BZ     NKDIM =      9   number of bands    NBANDS=     10
   number of dos      NEDOS =    301   number of ions     NIONS =      3
   non local maximal  LDIM  =      4   non local SUM 2l+1 LMDIM =      8
   total plane-waves  NPLWV = 301056
   max r-space proj   IRMAX =   1159   max aug-charges    IRDMAX=   2379
   dimension x,y,z NGX =    56 NGY =   64 NGZ =   84
   dimension x,y,z NGXF=   112 NGYF=  128 NGZF=  168
   support grid    NGXF=   112 NGYF=  128 NGZF=  168
   ions per type =               1   2
 NGX,Y,Z   is equivalent  to a cutoff of   9.16,  9.05,  9.31 a.u.
 NGXF,Y,Z  is equivalent  to a cutoff of  18.33, 18.09, 18.62 a.u.


 I would recommend the setting:
   dimension x,y,z NGX =    56 NGY =   64 NGZ =   82
 SYSTEM =  Beta12Borophene !The name of the system 
 POSCAR =  MoleculeAdsorption                      

 Startparameter for this run:
   NWRITE =      2    write-flag & timer
   PREC   = normal    normal or accurate (medium, high low for compatibility)
   ISTART =      0    job   : 0-new  1-cont  2-samecut
   ICHARG =      2    charge: 1-file 2-atom 10-const
   ISPIN  =      2    spin polarized calculation?
   LNONCOLLINEAR =      F non collinear calculations
   LSORBIT =      F    spin-orbit coupling
   INIWAV =      1    electr: 0-lowe 1-rand  2-diag
   LASPH  =      F    aspherical Exc in radial PAW
   METAGGA=      F    non-selfconsistent MetaGGA calc.

 Electronic Relaxation 1
   ENCUT  =  500.0 eV  36.75 Ry    6.06 a.u.  18.52 21.44 27.35*2*pi/ulx,y,z
   ENINI  =  500.0     initial cutoff
   ENAUG  =  605.4 eV  augmentation charge cutoff
   NELM   =     60;   NELMIN=  2; NELMDL= -5     # of ELM steps 
   EDIFF  = 0.1E-05   stopping-criterion for ELM
   LREAL  =      T    real-space projection
   NLSPLINE    = F    spline interpolate recip. space projectors
   LCOMPAT=      F    compatible to vasp.4.4
   GGA_COMPAT  = T    GGA compatible to vasp.4.4-vasp.4.6
   LMAXPAW     = -100 max onsite density
   LMAXMIX     =    2 max onsite mixed and CHGCAR
   VOSKOWN=      0    Vosko Wilk Nusair interpolation
   ROPT   =   -0.00050  -0.00050
 Ionic relaxation
   EDIFFG = -.1E-01   stopping-criterion for IOM
   NSW    =   1000    number of steps for IOM
   NBLOCK =      1;   KBLOCK =   1000    inner block; outer block 
   IBRION =      2    ionic relax: 0-MD 1-quasi-New 2-CG
   NFREE  =      1    steps in history (QN), initial steepest desc. (CG)
   ISIF   =      2    stress and relaxation
   IWAVPR =     11    prediction:  0-non 1-charg 2-wave 3-comb
   ISYM   =      2    0-nonsym 1-usesym 2-fastsym
   LCORR  =      T    Harris-Foulkes like correction to forces

   POTIM  = 0.5000    time-step for ionic-motion
   TEIN   =    0.0    initial temperature
   TEBEG  =    0.0;   TEEND  =   0.0 temperature during run
   SMASS  =  -3.00    Nose mass-parameter (am)
   estimated Nose-frequenzy (Omega)   =  0.10E-29 period in steps =****** mass=  -0.236E-26a.u.
   SCALEE = 1.0000    scale energy and forces
   NPACO  =    256;   APACO  = 16.0  distance and # of slots for P.C.
   PSTRESS=    0.0 pullay stress

  Mass of Ions in am
   POMASS =  16.00  1.00
  Ionic Valenz
   ZVAL   =   6.00  1.00
  Atomic Wigner-Seitz radii
   RWIGS  =  -1.00 -1.00
  virtual crystal weights 
   VCA    =   1.00  1.00
   NELECT =       8.0000    total number of electrons
   NUPDOWN=      -1.0000    fix difference up-down

 DOS related values:
   EMIN   =  10.00;   EMAX   =-10.00  energy-range for DOS
   EFERMI =   0.00
   ISMEAR =     1;   SIGMA  =   0.10  broadening in eV -4-tet -1-fermi 0-gaus

 Electronic relaxation 2 (details)
   IALGO  =     38    algorithm
   LDIAG  =      T    sub-space diagonalisation (order eigenvalues)
   LSUBROT=      T    optimize rotation matrix (better conditioning)
   TURBO    =      0    0=normal 1=particle mesh
   IRESTART =      0    0=no restart 2=restart with 2 vectors
   NREBOOT  =      0    no. of reboots
   NMIN     =      0    reboot dimension
   EREF     =   0.00    reference energy to select bands
   IMIX   =      4    mixing-type and parameters
     AMIX     =   0.40;   BMIX     =  1.00
     AMIX_MAG =   1.60;   BMIX_MAG =  1.00
     AMIN     =   0.10
     WC   =   100.;   INIMIX=   1;  MIXPRE=   1;  MAXMIX= -45

 Intra band minimization:
   WEIMIN = 0.0010     energy-eigenvalue tresh-hold
   EBREAK =  0.25E-07  absolut break condition
   DEPER  =   0.30     relativ break condition  

   TIME   =   0.40     timestep for ELM

  volume/ion in A,a.u.               =     597.41      4031.51
  Fermi-wavevector in a.u.,A,eV,Ry     =   0.269551  0.509377  0.988568  0.072658
  Thomas-Fermi vector in A             =   1.107068
 
 Write flags
   LWAVE  =      F    write WAVECAR
   LCHARG =      F    write CHGCAR
   LVTOT  =      F    write LOCPOT, total local potential
   LVHAR  =      F    write LOCPOT, Hartree potential only
   LELF   =      F    write electronic localiz. function (ELF)
   LORBIT =      0    0 simple, 1 ext, 2 COOP (PROOUT)


 Dipole corrections
   LMONO  =      F    monopole corrections only (constant potential shift)
   LDIPOL =      T    correct potential (dipole corrections)
   IDIPOL =      3    1-x, 2-y, 3-z, 4-all directions 
   EPSILON=  1.0000000 bulk dielectric constant

 Exchange correlation treatment:
   GGA     =    PE    GGA type
   LEXCH   =     8    internal setting for exchange type
   VOSKOWN=      0    Vosko Wilk Nusair interpolation
   LHFCALC =     F    Hartree Fock is set to
   LHFONE  =     F    Hartree Fock one center treatment
   AEXX    =    0.0000 exact exchange contribution

 Linear response parameters
   LEPSILON=     F    determine dielectric tensor
   LRPA    =     F    only Hartree local field effects (RPA)
   LNABLA  =     F    use nabla operator in PAW spheres
   LVEL    =     F    velocity operator in full k-point grid
   LINTERFAST=   F  fast interpolation
   KINTER  =     0    interpolate to denser k-point grid
   CSHIFT  =0.1000    complex shift for real part using Kramers Kronig
   OMEGAMAX=  -1.0    maximum frequency
   DEG_THRESHOLD= 0.2000000E-02 threshold for treating states as degnerate
   RTIME   =    0.100 relaxation time in fs

 Orbital magnetization related:
   ORBITALMAG=     F  switch on orbital magnetization
   LCHIMAG   =     F  perturbation theory with respect to B field
   DQ        =  0.001000  dq finite difference perturbation B field



--------------------------------------------------------------------------------------------------------


 conjugate gradient relaxation of ions
 charge density and potential will be updated during run
 spin polarized calculation
 Variant of blocked Davidson
 Davidson routine will perform the subspace rotation
 perform sub-space diagonalisation
    after iterative eigenvector-optimisation
 modified Broyden-mixing scheme, WC =      100.0
 initial mixing is a Kerker type mixing with AMIX =  0.4000 and BMIX =      1.0000
 Hartree-type preconditioning will be used
 using additional bands            6
 real space projection scheme for non local part
 use partial core corrections
 calculate Harris-corrections to forces 
   (improved forces if not selfconsistent)
 use gradient corrections 
 use of overlap-Matrix (Vanderbilt PP)
 Methfessel and Paxton  Order N= 1 SIGMA  =   0.10


--------------------------------------------------------------------------------------------------------


  energy-cutoff  :      500.00
  volume of cell :     1792.22
      direct lattice vectors                 reciprocal lattice vectors
    10.160000000  0.000000000  0.000000000     0.098425197  0.000000000  0.000000000
     0.000000000 11.760000000  0.000000000     0.000000000  0.085034014  0.000000000
     0.000000000  0.000000000 15.000000000     0.000000000  0.000000000  0.066666667

  length of vectors
    10.160000000 11.760000000 15.000000000     0.098425197  0.085034014  0.066666667


 
 k-points in units of 2pi/SCALE and weight: K-Points                                
   0.00000000  0.00000000  0.01666667       0.111
   0.03280840  0.00000000  0.01666667       0.111
  -0.03280840  0.00000000  0.01666667       0.111
   0.00000000  0.02834467  0.01666667       0.111
   0.03280840  0.02834467  0.01666667       0.111
  -0.03280840  0.02834467  0.01666667       0.111
   0.00000000 -0.02834467  0.01666667       0.111
   0.03280840 -0.02834467  0.01666667       0.111
  -0.03280840 -0.02834467  0.01666667       0.111
 
 k-points in reciprocal lattice and weights: K-Points                                
   0.00000000  0.00000000  0.25000000       0.111
   0.33333333  0.00000000  0.25000000       0.111
  -0.33333333  0.00000000  0.25000000       0.111
   0.00000000  0.33333333  0.25000000       0.111
   0.33333333  0.33333333  0.25000000       0.111
  -0.33333333  0.33333333  0.25000000       0.111
   0.00000000 -0.33333333  0.25000000       0.111
   0.33333333 -0.33333333  0.25000000       0.111
  -0.33333333 -0.33333333  0.25000000       0.111
 
 position of ions in fractional coordinates (direct lattice) 
   0.00000000  0.00000000  0.00000000
   0.09737000  0.00347000  0.00087000
   0.97152000  0.07671000  0.01922000
 
 position of ions in cartesian coordinates  (Angst):
   0.00000000  0.00000000  0.00000000
   0.98927920  0.04080720  0.01305000
   9.87064320  0.90210960  0.28830000
 


--------------------------------------------------------------------------------------------------------


 k-point  1 :   0.0000 0.0000 0.2500  plane waves:   45501
 k-point  2 :   0.3333 0.0000 0.2500  plane waves:   45508
 k-point  3 :  -0.3333 0.0000 0.2500  plane waves:   45508
 k-point  4 :   0.0000 0.3333 0.2500  plane waves:   45494
 k-point  5 :   0.3333 0.3333 0.2500  plane waves:   45490
 k-point  6 :  -0.3333 0.3333 0.2500  plane waves:   45490
 k-point  7 :   0.0000-0.3333 0.2500  plane waves:   45494
 k-point  8 :   0.3333-0.3333 0.2500  plane waves:   45490
 k-point  9 :  -0.3333-0.3333 0.2500  plane waves:   45490

 maximum and minimum number of plane-waves per node :     11425    11326

 maximum number of plane-waves:     45508
 maximum index in each direction: 
   IXMAX=   18   IYMAX=   21   IZMAX=   27
   IXMIN=  -18   IYMIN=  -21   IZMIN=  -27

 WARNING: aliasing errors must be expected set NGX to  74 to avoid them
 WARNING: aliasing errors must be expected set NGY to  86 to avoid them
 WARNING: aliasing errors must be expected set NGZ to 110 to avoid them
 aliasing errors are usually negligible using standard VASP settings
 and one can safely disregard these warnings

 real space projection operators:
  total allocation   :        128.95 KBytes
  max/ min on nodes  :         32.58         31.69


 parallel 3D FFT for wavefunctions:
    minimum data exchange during FFTs selected (reduces bandwidth)
 parallel 3D FFT for charge:
    minimum data exchange during FFTs selected (reduces bandwidth)


 total amount of memory used by VASP on root node   140302. kBytes
========================================================================

   base      :      30000. kBytes
   nonlr-proj:         95. kBytes
   fftplans  :      22744. kBytes
   grid      :      54677. kBytes
   one-center:          6. kBytes
   wavefun   :      32780. kBytes
 
 Broyden mixing: mesh for mixing (old mesh)
   NGX = 37   NGY = 43   NGZ = 55
  (NGX  =112   NGY  =128   NGZ  =168)
  gives a total of  87505 points

 initial charge density was supplied:
 charge density of overlapping atoms calculated
 number of electron       8.0000000 magnetization       3.0000000
 keeping initial charge density in first step


--------------------------------------------------------------------------------------------------------


 Maximum index for non-local projection operator          258
 Maximum index for augmentation-charges          489 (set IRDMAX)


--------------------------------------------------------------------------------------------------------


 First call to EWALD:  gamma=   0.146
 Maximum number of real-space cells 3x 3x 2
 Maximum number of reciprocal cells 2x 3x 3

 FEWALD executed in parallel
    FEWALD:  cpu time    0.00: real time    0.00


----------------------------------------- Iteration    1(   1)  ---------------------------------------


    POTLOK:  cpu time    1.18: real time    1.19
    SETDIJ:  cpu time    0.01: real time    0.01
     EDDAV:  cpu time    4.01: real time    4.02
       DOS:  cpu time    0.00: real time    0.00
    --------------------------------------------
      LOOP:  cpu time    5.21: real time    5.23

 eigenvalue-minimisations  :   360
 total energy-change (2. order) : 0.7407343E+02  (-0.1119426E+03)
 number of electron       8.0000000 magnetization       3.0000000
 augmentation part        8.0000000 magnetization       3.0000000

 DIPCOR: dipole corrections for dipol
 direction  3 min pos    92,
 dipolmoment           0.000000      0.000000      0.000013 electrons x Angstroem
 Tr[quadrupol]        -1.030441

 energy correction for charged system         0.000000 eV
 dipol+quadrupol energy correction           -0.000000 eV
 added-field ion interaction          0.000006 eV  (added to PSCEN)


 Free energy of the ion-electron system (eV)
  ---------------------------------------------------
  alpha Z        PSCENC =         0.12513084
  Ewald energy   TEWEN  =        80.86662173
  -1/2 Hartree   DENC   =      -442.06058198
  -exchange  EXHF       =         0.00000000
  -V(xc)+E(xc)   XCENC  =        32.92075976
  PAW double counting   =       349.99468356     -351.80531939
  entropy T*S    EENTRO =        -0.00016154
  eigenvalues    EBANDS =       -53.29700082
  atomic energy  EATOM  =       457.32929435
  ---------------------------------------------------
  free energy    TOTEN  =        74.07342651 eV

  energy without entropy =       74.07358805  energy(sigma->0) =       74.07348036


--------------------------------------------------------------------------------------------------------




----------------------------------------- Iteration    1(   2)  ---------------------------------------


     EDDAV:  cpu time    7.12: real time    7.13
       DOS:  cpu time    0.00: real time    0.00
    --------------------------------------------
      LOOP:  cpu time    7.12: real time    7.13

 eigenvalue-minimisations  :   616
 total energy-change (2. order) :-0.6484331E+02  (-0.6230051E+02)
 number of electron       8.0000000 magnetization       3.0000000
 augmentation part        8.0000000 magnetization       3.0000000

 DIPCOR: dipole corrections for dipol
 direction  3 min pos    92,
 dipolmoment           0.000000      0.000000      0.000013 electrons x Angstroem
 Tr[quadrupol]        -1.030441

 energy correction for charged system         0.000000 eV
 dipol+quadrupol energy correction           -0.000000 eV
 added-field ion interaction          0.000006 eV  (added to PSCEN)


 Free energy of the ion-electron system (eV)
  ---------------------------------------------------
  alpha Z        PSCENC =         0.12513084
  Ewald energy   TEWEN  =        80.86662173
  -1/2 Hartree   DENC   =      -442.06058198
  -exchange  EXHF       =         0.00000000
  -V(xc)+E(xc)   XCENC  =        32.92075976
  PAW double counting   =       349.99468356     -351.80531939
  entropy T*S    EENTRO =        -0.00264627
  eigenvalues    EBANDS =      -118.13782220
  atomic energy  EATOM  =       457.32929435
  ---------------------------------------------------
  free energy    TOTEN  =         9.23012040 eV

  energy without entropy =        9.23276667  energy(sigma->0) =        9.23100249


--------------------------------------------------------------------------------------------------------




----------------------------------------- Iteration    1(   3)  ---------------------------------------


     EDDAV:  cpu time    5.68: real time    5.68
       DOS:  cpu time    0.00: real time    0.00
    --------------------------------------------
      LOOP:  cpu time    5.68: real time    5.70

 eigenvalue-minimisations  :   456
 total energy-change (2. order) :-0.2109713E+02  (-0.2007697E+02)
 number of electron       8.0000000 magnetization       3.0000000
 augmentation part        8.0000000 magnetization       3.0000000

 DIPCOR: dipole corrections for dipol
 direction  3 min pos    92,
 dipolmoment           0.000000      0.000000      0.000013 electrons x Angstroem
 Tr[quadrupol]        -1.030441

 energy correction for charged system         0.000000 eV
 dipol+quadrupol energy correction           -0.000000 eV
 added-field ion interaction          0.000006 eV  (added to PSCEN)


 Free energy of the ion-electron system (eV)
  ---------------------------------------------------
  alpha Z        PSCENC =         0.12513084
  Ewald energy   TEWEN  =        80.86662173
  -1/2 Hartree   DENC   =      -442.06058198
  -exchange  EXHF       =         0.00000000
  -V(xc)+E(xc)   XCENC  =        32.92075976
  PAW double counting   =       349.99468356     -351.80531939
  entropy T*S    EENTRO =         0.00124029
  eigenvalues    EBANDS =      -139.23883830
  atomic energy  EATOM  =       457.32929435
  ---------------------------------------------------
  free energy    TOTEN  =       -11.86700914 eV

  energy without entropy =      -11.86824943  energy(sigma->0) =      -11.86742257


--------------------------------------------------------------------------------------------------------




----------------------------------------- Iteration    1(   4)  ---------------------------------------


     EDDAV:  cpu time    5.88: real time    5.89
       DOS:  cpu time    0.00: real time    0.00
    --------------------------------------------
      LOOP:  cpu time    5.89: real time    5.90

 eigenvalue-minimisations  :   476
 total energy-change (2. order) :-0.1019760E+01  (-0.1021299E+01)
 number of electron       8.0000000 magnetization       3.0000000
 augmentation part        8.0000000 magnetization       3.0000000

 DIPCOR: dipole corrections for dipol
 direction  3 min pos    92,
 dipolmoment           0.000000      0.000000      0.000013 electrons x Angstroem
 Tr[quadrupol]        -1.030441

 energy correction for charged system         0.000000 eV
 dipol+quadrupol energy correction           -0.000000 eV
 added-field ion interaction          0.000006 eV  (added to PSCEN)


 Free energy of the ion-electron system (eV)
  ---------------------------------------------------
  alpha Z        PSCENC =         0.12513084
  Ewald energy   TEWEN  =        80.86662173
  -1/2 Hartree   DENC   =      -442.06058198
  -exchange  EXHF       =         0.00000000
  -V(xc)+E(xc)   XCENC  =        32.92075976
  PAW double counting   =       349.99468356     -351.80531939
  entropy T*S    EENTRO =         0.00290016
  eigenvalues    EBANDS =      -140.26025784
  atomic energy  EATOM  =       457.32929435
  ---------------------------------------------------
  free energy    TOTEN  =       -12.88676881 eV

  energy without entropy =      -12.88966897  energy(sigma->0) =      -12.88773553


--------------------------------------------------------------------------------------------------------




----------------------------------------- Iteration    1(   5)  ---------------------------------------


     EDDAV:  cpu time    5.67: real time    5.71
       DOS:  cpu time    0.00: real time    0.00
    CHARGE:  cpu time    0.29: real time    0.29
    MIXING:  cpu time    0.02: real time    0.02
    --------------------------------------------
      LOOP:  cpu time    5.99: real time    6.03

 eigenvalue-minimisations  :   452
 total energy-change (2. order) :-0.7479492E-02  (-0.7478264E-02)
 number of electron       7.9999999 magnetization       2.2835090
 augmentation part        0.8493231 magnetization       2.2568643

 DIPCOR: dipole corrections for dipol
 direction  3 min pos    92,
 dipolmoment           0.000000      0.000000      0.000013 electrons x Angstroem
 Tr[quadrupol]        -1.030441

 energy correction for charged system         0.000000 eV
 dipol+quadrupol energy correction           -0.000000 eV
 added-field ion interaction          0.000006 eV  (added to PSCEN)


 Broyden mixing:
  rms(total) = 0.13817E+01    rms(broyden)= 0.13813E+01
  rms(prec ) = 0.14759E+01
  weight for this iteration     100.00

 Free energy of the ion-electron system (eV)
  ---------------------------------------------------
  alpha Z        PSCENC =         0.12513084
  Ewald energy   TEWEN  =        80.86662173
  -1/2 Hartree   DENC   =      -442.06058198
  -exchange  EXHF       =         0.00000000
  -V(xc)+E(xc)   XCENC  =        32.92075976
  PAW double counting   =       349.99468356     -351.80531939
  entropy T*S    EENTRO =         0.00289895
  eigenvalues    EBANDS =      -140.26773612
  atomic energy  EATOM  =       457.32929435
  ---------------------------------------------------
  free energy    TOTEN  =       -12.89424830 eV

  energy without entropy =      -12.89714725  energy(sigma->0) =      -12.89521462


--------------------------------------------------------------------------------------------------------




----------------------------------------- Iteration    1(   6)  ---------------------------------------


    POTLOK:  cpu time    1.38: real time    1.38
    SETDIJ:  cpu time    0.01: real time    0.01
     EDDAV:  cpu time    5.19: real time    5.24
       DOS:  cpu time    0.00: real time    0.00
    CHARGE:  cpu time    0.28: real time    0.28
    MIXING:  cpu time    0.02: real time    0.02
    --------------------------------------------
      LOOP:  cpu time    6.89: real time    6.94

 eigenvalue-minimisations  :   394
 total energy-change (2. order) : 0.8651567E+01  (-0.2340757E+01)
 number of electron       8.0000000 magnetization       1.7946093
 augmentation part        0.7143101 magnetization       1.7204752

 DIPCOR: dipole corrections for dipol
 direction  3 min pos    92,
 dipolmoment           0.000000      0.000000     -0.014919 electrons x Angstroem
 Tr[quadrupol]        -1.047349

 energy correction for charged system         0.000000 eV
 dipol+quadrupol energy correction           -0.000011 eV
 added-field ion interaction         -0.007180 eV  (added to PSCEN)


 Broyden mixing:
  rms(total) = 0.48711E+00    rms(broyden)= 0.48660E+00
  rms(prec ) = 0.51552E+00
  weight for this iteration     100.00

 eigenvalues of (default mixing * dielectric matrix)
  average eigenvalue GAMMA=   0.8432
  0.8432

 Free energy of the ion-electron system (eV)
  ---------------------------------------------------
  alpha Z        PSCENC =         0.11793271
  Ewald energy   TEWEN  =        80.86662173
  -1/2 Hartree   DENC   =      -467.75341251
  -exchange  EXHF       =         0.00000000
  -V(xc)+E(xc)   XCENC  =        41.90331129
  PAW double counting   =       446.03039446     -448.24055687
  entropy T*S    EENTRO =         0.00289926
  eigenvalues    EBANDS =      -114.49916550
  atomic energy  EATOM  =       457.32929435
  ---------------------------------------------------
  free energy    TOTEN  =        -4.24268108 eV

  energy without entropy =       -4.24558034  energy(sigma->0) =       -4.24364750


--------------------------------------------------------------------------------------------------------




----------------------------------------- Iteration    1(   7)  ---------------------------------------


    POTLOK:  cpu time    1.37: real time    1.37
    SETDIJ:  cpu time    0.01: real time    0.01
     EDDAV:  cpu time    5.41: real time    5.41
       DOS:  cpu time    0.00: real time    0.00
    CHARGE:  cpu time    0.28: real time    0.28
    MIXING:  cpu time    0.03: real time    0.03
    --------------------------------------------
      LOOP:  cpu time    7.10: real time    7.10

 eigenvalue-minimisations  :   414
 total energy-change (2. order) :-0.6529212E+01  (-0.4634255E+00)
 number of electron       8.0000000 magnetization       1.4147054
 augmentation part        0.6802851 magnetization       1.3575159

 DIPCOR: dipole corrections for dipol
 direction  3 min pos    92,
 dipolmoment           0.000000      0.000000     -0.021236 electrons x Angstroem
 Tr[quadrupol]        -1.060858

 energy correction for charged system         0.000000 eV
 dipol+quadrupol energy correction           -0.000023 eV
 added-field ion interaction         -0.010221 eV  (added to PSCEN)


 Broyden mixing:
  rms(total) = 0.31617E+00    rms(broyden)= 0.31613E+00
  rms(prec ) = 0.33423E+00
  weight for this iteration     100.00

 eigenvalues of (default mixing * dielectric matrix)
  average eigenvalue GAMMA=   0.8143
  0.8143  0.8143

 Free energy of the ion-electron system (eV)
  ---------------------------------------------------
  alpha Z        PSCENC =         0.11488049
  Ewald energy   TEWEN  =        80.86662173
  -1/2 Hartree   DENC   =      -473.03398663
  -exchange  EXHF       =         0.00000000
  -V(xc)+E(xc)   XCENC  =        36.83751967
  PAW double counting   =       488.11678182     -490.30168464
  entropy T*S    EENTRO =         0.00583396
  eigenvalues    EBANDS =      -110.70715372
  atomic energy  EATOM  =       457.32929435
  ---------------------------------------------------
  free energy    TOTEN  =       -10.77189297 eV

  energy without entropy =      -10.77772693  energy(sigma->0) =      -10.77383762


--------------------------------------------------------------------------------------------------------




----------------------------------------- Iteration    1(   8)  ---------------------------------------


    POTLOK:  cpu time    1.37: real time    1.37
    SETDIJ:  cpu time    0.02: real time    0.02
     EDDAV:  cpu time    5.50: real time    5.50
       DOS:  cpu time    0.00: real time    0.00
    CHARGE:  cpu time    0.27: real time    0.27
    MIXING:  cpu time    0.03: real time    0.03
    --------------------------------------------
      LOOP:  cpu time    7.18: real time    7.18

 eigenvalue-minimisations  :   426
 total energy-change (2. order) :-0.8986991E+00  (-0.3531735E-01)
 number of electron       8.0000000 magnetization       0.7554486
 augmentation part        0.6895736 magnetization       0.7273210

 DIPCOR: dipole corrections for dipol
 direction  3 min pos    92,
 dipolmoment           0.000000      0.000000     -0.025867 electrons x Angstroem
 Tr[quadrupol]        -1.067925

 energy correction for charged system         0.000000 eV
 dipol+quadrupol energy correction           -0.000034 eV
 added-field ion interaction         -0.012450 eV  (added to PSCEN)


 Broyden mixing:
  rms(total) = 0.18467E+00    rms(broyden)= 0.18466E+00
  rms(prec ) = 0.19804E+00
  weight for this iteration     100.00

 eigenvalues of (default mixing * dielectric matrix)
  average eigenvalue GAMMA=   1.1643
  1.8432  0.9886  0.6610

 Free energy of the ion-electron system (eV)
  ---------------------------------------------------
  alpha Z        PSCENC =         0.11264019
  Ewald energy   TEWEN  =        80.86662173
  -1/2 Hartree   DENC   =      -472.66756630
  -exchange  EXHF       =         0.00000000
  -V(xc)+E(xc)   XCENC  =        36.01048349
  PAW double counting   =       505.96582571     -508.09285147
  entropy T*S    EENTRO =         0.00318705
  eigenvalues    EBANDS =      -111.19822681
  atomic energy  EATOM  =       457.32929435
  ---------------------------------------------------
  free energy    TOTEN  =       -11.67059205 eV

  energy without entropy =      -11.67377910  energy(sigma->0) =      -11.67165440


--------------------------------------------------------------------------------------------------------




----------------------------------------- Iteration    1(   9)  ---------------------------------------


    POTLOK:  cpu time    1.37: real time    1.37
    SETDIJ:  cpu time    0.01: real time    0.01
     EDDAV:  cpu time    5.32: real time    5.34
       DOS:  cpu time    0.00: real time    0.00
    CHARGE:  cpu time    0.27: real time    0.27
    MIXING:  cpu time    0.03: real time    0.03
    --------------------------------------------
      LOOP:  cpu time    7.00: real time    7.02

 eigenvalue-minimisations  :   404
 total energy-change (2. order) :-0.1454320E+01  (-0.7421630E-01)
 number of electron       7.9999999 magnetization       0.5744718
 augmentation part        0.6938613 magnetization       0.5474935

 DIPCOR: dipole corrections for dipol
 direction  3 min pos    92,
 dipolmoment           0.000000      0.000000     -0.035581 electrons x Angstroem
 Tr[quadrupol]        -1.082002

 energy correction for charged system         0.000000 eV
 dipol+quadrupol energy correction           -0.000065 eV
 added-field ion interaction         -0.017125 eV  (added to PSCEN)


 Broyden mixing:
  rms(total) = 0.51661E-01    rms(broyden)= 0.51590E-01
  rms(prec ) = 0.61915E-01
  weight for this iteration     100.00

 eigenvalues of (default mixing * dielectric matrix)
  average eigenvalue GAMMA=   1.1208
  2.0286  0.8996  0.8996  0.6552

 Free energy of the ion-electron system (eV)
  ---------------------------------------------------
  alpha Z        PSCENC =         0.10793449
  Ewald energy   TEWEN  =        80.86662173
  -1/2 Hartree   DENC   =      -474.24717459
  -exchange  EXHF       =         0.00000000
  -V(xc)+E(xc)   XCENC  =        34.86692682
  PAW double counting   =       536.08091843     -538.15882248
  entropy T*S    EENTRO =         0.00585429
  eigenvalues    EBANDS =      -109.97646484
  atomic energy  EATOM  =       457.32929435
  ---------------------------------------------------
  free energy    TOTEN  =       -13.12491180 eV

  energy without entropy =      -13.13076609  energy(sigma->0) =      -13.12686323


--------------------------------------------------------------------------------------------------------




----------------------------------------- Iteration    1(  10)  ---------------------------------------


    POTLOK:  cpu time    1.37: real time    1.38
    SETDIJ:  cpu time    0.01: real time    0.01
     EDDAV:  cpu time    7.02: real time    7.04
       DOS:  cpu time    0.00: real time    0.00
    CHARGE:  cpu time    0.27: real time    0.27
    MIXING:  cpu time    0.03: real time    0.03
    --------------------------------------------
      LOOP:  cpu time    8.71: real time    8.74

 eigenvalue-minimisations  :   566
 total energy-change (2. order) :-0.2264563E+00  (-0.8305627E-02)
 number of electron       7.9999999 magnetization       0.5008037
 augmentation part        0.6844582 magnetization       0.4402868

 DIPCOR: dipole corrections for dipol
 direction  3 min pos    92,
 dipolmoment           0.000000      0.000000     -0.039788 electrons x Angstroem
 Tr[quadrupol]        -1.086131

 energy correction for charged system         0.000000 eV
 dipol+quadrupol energy correction           -0.000081 eV
 added-field ion interaction         -0.019151 eV  (added to PSCEN)


 Broyden mixing:
  rms(total) = 0.50178E-01    rms(broyden)= 0.50060E-01
  rms(prec ) = 0.54760E-01
  weight for this iteration     100.00

 eigenvalues of (default mixing * dielectric matrix)
  average eigenvalue GAMMA=   0.9546
  2.0312  1.0385  0.7652  0.6525  0.2858

 Free energy of the ion-electron system (eV)
  ---------------------------------------------------
  alpha Z        PSCENC =         0.10589297
  Ewald energy   TEWEN  =        80.86662173
  -1/2 Hartree   DENC   =      -475.34196449
  -exchange  EXHF       =         0.00000000
  -V(xc)+E(xc)   XCENC  =        34.72961736
  PAW double counting   =       539.58908740     -541.67792610
  entropy T*S    EENTRO =         0.00643239
  eigenvalues    EBANDS =      -108.95842367
  atomic energy  EATOM  =       457.32929435
  ---------------------------------------------------
  free energy    TOTEN  =       -13.35136805 eV

  energy without entropy =      -13.35780044  energy(sigma->0) =      -13.35351218


--------------------------------------------------------------------------------------------------------




----------------------------------------- Iteration    1(  11)  ---------------------------------------


    POTLOK:  cpu time    1.39: real time    1.39
    SETDIJ:  cpu time    0.01: real time    0.01
     EDDAV:  cpu time    5.27: real time    5.28
       DOS:  cpu time    0.00: real time    0.00
    CHARGE:  cpu time    0.28: real time    0.28
    MIXING:  cpu time    0.03: real time    0.04
    --------------------------------------------
      LOOP:  cpu time    6.98: real time    7.00

 eigenvalue-minimisations  :   394
 total energy-change (2. order) :-0.1617455E+00  (-0.6541599E-03)
 number of electron       7.9999999 magnetization       0.2978118
 augmentation part        0.6849216 magnetization       0.2924231

 DIPCOR: dipole corrections for dipol
 direction  3 min pos    91,
 dipolmoment           0.000000      0.000000     -0.042204 electrons x Angstroem
 Tr[quadrupol]        -1.094779

 energy correction for charged system         0.000000 eV
 dipol+quadrupol energy correction           -0.000091 eV
 added-field ion interaction         -0.017225 eV  (added to PSCEN)


 Broyden mixing:
  rms(total) = 0.43551E-01    rms(broyden)= 0.43491E-01
  rms(prec ) = 0.47735E-01
  weight for this iteration     100.00

 eigenvalues of (default mixing * dielectric matrix)
  average eigenvalue GAMMA=   1.0238
  2.1732  1.3724  0.8046  0.8046  0.6235  0.3645

 Free energy of the ion-electron system (eV)
  ---------------------------------------------------
  alpha Z        PSCENC =         0.10780806
  Ewald energy   TEWEN  =        80.86662173
  -1/2 Hartree   DENC   =      -475.28693957
  -exchange  EXHF       =         0.00000000
  -V(xc)+E(xc)   XCENC  =        34.56620303
  PAW double counting   =       538.26983394     -540.35453355
  entropy T*S    EENTRO =         0.00331348
  eigenvalues    EBANDS =      -109.01471507
  atomic energy  EATOM  =       457.32929435
  ---------------------------------------------------
  free energy    TOTEN  =       -13.51311357 eV

  energy without entropy =      -13.51642706  energy(sigma->0) =      -13.51421807


--------------------------------------------------------------------------------------------------------




----------------------------------------- Iteration    1(  12)  ---------------------------------------


    POTLOK:  cpu time    1.39: real time    1.39
    SETDIJ:  cpu time    0.01: real time    0.01
     EDDAV:  cpu time    5.33: real time    5.34
       DOS:  cpu time    0.00: real time    0.00
    CHARGE:  cpu time    0.28: real time    0.28
    MIXING:  cpu time    0.04: real time    0.04
    --------------------------------------------
      LOOP:  cpu time    7.06: real time    7.07

 eigenvalue-minimisations  :   404
 total energy-change (2. order) :-0.3590022E+00  (-0.8192466E-03)
 number of electron       7.9999999 magnetization       0.1102237
 augmentation part        0.6842302 magnetization       0.1003426

 DIPCOR: dipole corrections for dipol
 direction  3 min pos    89,
 dipolmoment           0.000000      0.000000     -0.048580 electrons x Angstroem
 Tr[quadrupol]        -1.116479

 energy correction for charged system         0.000000 eV
 dipol+quadrupol energy correction           -0.000121 eV
 added-field ion interaction         -0.012718 eV  (added to PSCEN)


 Broyden mixing:
  rms(total) = 0.31151E-01    rms(broyden)= 0.31150E-01
  rms(prec ) = 0.34082E-01
  weight for this iteration     100.00

 eigenvalues of (default mixing * dielectric matrix)
  average eigenvalue GAMMA=   1.1605
  2.6798  1.8577  1.0409  0.7634  0.7634  0.6001  0.4179

 Free energy of the ion-electron system (eV)
  ---------------------------------------------------
  alpha Z        PSCENC =         0.11228539
  Ewald energy   TEWEN  =        80.86662173
  -1/2 Hartree   DENC   =      -475.54866255
  -exchange  EXHF       =         0.00000000
  -V(xc)+E(xc)   XCENC  =        34.21640391
  PAW double counting   =       537.03931787     -539.11995342
  entropy T*S    EENTRO =         0.00375512
  eigenvalues    EBANDS =      -108.77117822
  atomic energy  EATOM  =       457.32929435
  ---------------------------------------------------
  free energy    TOTEN  =       -13.87211581 eV

  energy without entropy =      -13.87587093  energy(sigma->0) =      -13.87336752


--------------------------------------------------------------------------------------------------------




----------------------------------------- Iteration    1(  13)  ---------------------------------------


    POTLOK:  cpu time    1.38: real time    1.39
    SETDIJ:  cpu time    0.01: real time    0.01
     EDDAV:  cpu time    6.03: real time    6.03
       DOS:  cpu time    0.00: real time    0.00
    CHARGE:  cpu time    0.26: real time    0.26
    MIXING:  cpu time    0.04: real time    0.04
    --------------------------------------------
      LOOP:  cpu time    7.73: real time    7.74

 eigenvalue-minimisations  :   472
 total energy-change (2. order) :-0.2653432E+00  (-0.9217996E-03)
 number of electron       7.9999999 magnetization       0.0357191
 augmentation part        0.6834403 magnetization       0.0044809

 DIPCOR: dipole corrections for dipol
 direction  3 min pos    87,
 dipolmoment           0.000000      0.000000     -0.056801 electrons x Angstroem
 Tr[quadrupol]        -1.145093

 energy correction for charged system         0.000000 eV
 dipol+quadrupol energy correction           -0.000165 eV
 added-field ion interaction         -0.006559 eV  (added to PSCEN)


 Broyden mixing:
  rms(total) = 0.73322E-02    rms(broyden)= 0.72121E-02
  rms(prec ) = 0.11423E-01
  weight for this iteration     100.00

 eigenvalues of (default mixing * dielectric matrix)
  average eigenvalue GAMMA=   1.2639
  3.3914  2.1043  1.1839  0.9727  0.7577  0.6744  0.6056  0.4214

 Free energy of the ion-electron system (eV)
  ---------------------------------------------------
  alpha Z        PSCENC =         0.11840065
  Ewald energy   TEWEN  =        80.86662173
  -1/2 Hartree   DENC   =      -475.77408178
  -exchange  EXHF       =         0.00000000
  -V(xc)+E(xc)   XCENC  =        33.95763704
  PAW double counting   =       535.69172359     -537.76883877
  entropy T*S    EENTRO =         0.00519123
  eigenvalues    EBANDS =      -108.56340707
  atomic energy  EATOM  =       457.32929435
  ---------------------------------------------------
  free energy    TOTEN  =       -14.13745903 eV

  energy without entropy =      -14.14265026  energy(sigma->0) =      -14.13918944


--------------------------------------------------------------------------------------------------------




----------------------------------------- Iteration    1(  14)  ---------------------------------------


    POTLOK:  cpu time    1.39: real time    1.40
    SETDIJ:  cpu time    0.01: real time    0.01
     EDDAV:  cpu time    5.58: real time    5.59
       DOS:  cpu time    0.00: real time    0.00
    CHARGE:  cpu time    0.27: real time    0.27
    MIXING:  cpu time    0.05: real time    0.05
    --------------------------------------------
      LOOP:  cpu time    7.30: real time    7.31

 eigenvalue-minimisations  :   422
 total energy-change (2. order) :-0.4526490E-01  (-0.2758883E-03)
 number of electron       7.9999999 magnetization       0.0217621
 augmentation part        0.6836633 magnetization      -0.0187270

 DIPCOR: dipole corrections for dipol
 direction  3 min pos    86,
 dipolmoment           0.000000      0.000000     -0.063330 electrons x Angstroem
 Tr[quadrupol]        -1.164546

 energy correction for charged system         0.000000 eV
 dipol+quadrupol energy correction           -0.000205 eV
 added-field ion interaction         -0.002679 eV  (added to PSCEN)


 Broyden mixing:
  rms(total) = 0.13675E-01    rms(broyden)= 0.13646E-01
  rms(prec ) = 0.14976E-01
  weight for this iteration     100.00

 eigenvalues of (default mixing * dielectric matrix)
  average eigenvalue GAMMA=   1.2763
  3.6964  2.2324  1.1739  1.1739  0.7471  0.7471  0.6547  0.6547  0.4065

 Free energy of the ion-electron system (eV)
  ---------------------------------------------------
  alpha Z        PSCENC =         0.12224033
  Ewald energy   TEWEN  =        80.86662173
  -1/2 Hartree   DENC   =      -475.74988326
  -exchange  EXHF       =         0.00000000
  -V(xc)+E(xc)   XCENC  =        33.90834311
  PAW double counting   =       534.50176018     -536.57654687
  entropy T*S    EENTRO =         0.00571945
  eigenvalues    EBANDS =      -108.59027295
  atomic energy  EATOM  =       457.32929435
  ---------------------------------------------------
  free energy    TOTEN  =       -14.18272393 eV

  energy without entropy =      -14.18844338  energy(sigma->0) =      -14.18463041


--------------------------------------------------------------------------------------------------------




----------------------------------------- Iteration    1(  15)  ---------------------------------------


    POTLOK:  cpu time    1.37: real time    1.38
    SETDIJ:  cpu time    0.02: real time    0.02
     EDDAV:  cpu time    6.57: real time    6.58
       DOS:  cpu time    0.00: real time    0.00
    CHARGE:  cpu time    0.24: real time    0.24
    MIXING:  cpu time    0.05: real time    0.05
    --------------------------------------------
      LOOP:  cpu time    8.26: real time    8.28

 eigenvalue-minimisations  :   510
 total energy-change (2. order) :-0.6846994E-02  (-0.1447959E-03)
 number of electron       7.9999999 magnetization       0.0110081
 augmentation part        0.6838097 magnetization      -0.0078169

 DIPCOR: dipole corrections for dipol
 direction  3 min pos    86,
 dipolmoment           0.000000      0.000000     -0.068303 electrons x Angstroem
 Tr[quadrupol]        -1.170970

 energy correction for charged system         0.000000 eV
 dipol+quadrupol energy correction           -0.000239 eV
 added-field ion interaction         -0.002889 eV  (added to PSCEN)


 Broyden mixing:
  rms(total) = 0.12198E-01    rms(broyden)= 0.12162E-01
  rms(prec ) = 0.13021E-01
  weight for this iteration     100.00

 eigenvalues of (default mixing * dielectric matrix)
  average eigenvalue GAMMA=   1.3249
  3.9625  2.3605  1.7068  1.0387  1.0387  0.6925  0.6925  0.6967  0.6553  0.4052

 Free energy of the ion-electron system (eV)
  ---------------------------------------------------
  alpha Z        PSCENC =         0.12199648
  Ewald energy   TEWEN  =        80.86662173
  -1/2 Hartree   DENC   =      -475.71338241
  -exchange  EXHF       =         0.00000000
  -V(xc)+E(xc)   XCENC  =        33.89729293
  PAW double counting   =       534.07454756     -536.14884239
  entropy T*S    EENTRO =         0.00453844
  eigenvalues    EBANDS =      -108.62163760
  atomic energy  EATOM  =       457.32929435
  ---------------------------------------------------
  free energy    TOTEN  =       -14.18957092 eV

  energy without entropy =      -14.19410936  energy(sigma->0) =      -14.19108374


--------------------------------------------------------------------------------------------------------




----------------------------------------- Iteration    1(  16)  ---------------------------------------


    POTLOK:  cpu time    1.37: real time    1.37
    SETDIJ:  cpu time    0.02: real time    0.02
     EDDAV:  cpu time    5.24: real time    5.25
       DOS:  cpu time    0.00: real time    0.00
    CHARGE:  cpu time    0.27: real time    0.27
    MIXING:  cpu time    0.05: real time    0.05
    --------------------------------------------
      LOOP:  cpu time    6.95: real time    6.97

 eigenvalue-minimisations  :   394
 total energy-change (2. order) :-0.2289999E-02  (-0.4808901E-04)
 number of electron       7.9999999 magnetization       0.0187317
 augmentation part        0.6834926 magnetization      -0.0154569

 DIPCOR: dipole corrections for dipol
 direction  3 min pos    86,
 dipolmoment           0.000000      0.000000     -0.074870 electrons x Angstroem
 Tr[quadrupol]        -1.179048

 energy correction for charged system         0.000000 eV
 dipol+quadrupol energy correction           -0.000287 eV
 added-field ion interaction         -0.003167 eV  (added to PSCEN)


 Broyden mixing:
  rms(total) = 0.66151E-02    rms(broyden)= 0.65799E-02
  rms(prec ) = 0.71641E-02
  weight for this iteration     100.00

 eigenvalues of (default mixing * dielectric matrix)
  average eigenvalue GAMMA=   1.3518
  4.1961  2.5171  1.9959  1.2175  1.0397  0.4041  0.7788  0.7788  0.6587  0.6587
  0.6239

 Free energy of the ion-electron system (eV)
  ---------------------------------------------------
  alpha Z        PSCENC =         0.12167053
  Ewald energy   TEWEN  =        80.86662173
  -1/2 Hartree   DENC   =      -475.79533922
  -exchange  EXHF       =         0.00000000
  -V(xc)+E(xc)   XCENC  =        33.89767920
  PAW double counting   =       534.38992811     -536.46510194
  entropy T*S    EENTRO =         0.00544052
  eigenvalues    EBANDS =      -108.54205420
  atomic energy  EATOM  =       457.32929435
  ---------------------------------------------------
  free energy    TOTEN  =       -14.19186092 eV

  energy without entropy =      -14.19730144  energy(sigma->0) =      -14.19367443


--------------------------------------------------------------------------------------------------------




----------------------------------------- Iteration    1(  17)  ---------------------------------------


    POTLOK:  cpu time    1.38: real time    1.39
    SETDIJ:  cpu time    0.02: real time    0.02
     EDDAV:  cpu time    5.18: real time    5.19
       DOS:  cpu time    0.00: real time    0.00
    CHARGE:  cpu time    0.28: real time    0.28
    MIXING:  cpu time    0.06: real time    0.06
    --------------------------------------------
      LOOP:  cpu time    6.93: real time    6.94

 eigenvalue-minimisations  :   388
 total energy-change (2. order) :-0.9780361E-03  (-0.2186445E-04)
 number of electron       7.9999999 magnetization       0.0262185
 augmentation part        0.6833932 magnetization       0.0037671

 DIPCOR: dipole corrections for dipol
 direction  3 min pos    86,
 dipolmoment           0.000000      0.000000     -0.079733 electrons x Angstroem
 Tr[quadrupol]        -1.184164

 energy correction for charged system         0.000000 eV
 dipol+quadrupol energy correction           -0.000326 eV
 added-field ion interaction         -0.003373 eV  (added to PSCEN)


 Broyden mixing:
  rms(total) = 0.73978E-02    rms(broyden)= 0.73792E-02
  rms(prec ) = 0.76081E-02
  weight for this iteration     100.00

 eigenvalues of (default mixing * dielectric matrix)
  average eigenvalue GAMMA=   1.4303
  4.4846  2.9965  2.1619  1.4938  1.1086  1.1086  0.4035  0.7962  0.7382  0.6223
  0.6223  0.6267

 Free energy of the ion-electron system (eV)
  ---------------------------------------------------
  alpha Z        PSCENC =         0.12142634
  Ewald energy   TEWEN  =        80.86662173
  -1/2 Hartree   DENC   =      -475.81405265
  -exchange  EXHF       =         0.00000000
  -V(xc)+E(xc)   XCENC  =        33.89706211
  PAW double counting   =       534.54131645     -536.61650416
  entropy T*S    EENTRO =         0.00477298
  eigenvalues    EBANDS =      -108.52277612
  atomic energy  EATOM  =       457.32929435
  ---------------------------------------------------
  free energy    TOTEN  =       -14.19283896 eV

  energy without entropy =      -14.19761194  energy(sigma->0) =      -14.19442995


--------------------------------------------------------------------------------------------------------




----------------------------------------- Iteration    1(  18)  ---------------------------------------


    POTLOK:  cpu time    1.38: real time    1.38
    SETDIJ:  cpu time    0.02: real time    0.02
     EDDAV:  cpu time    5.23: real time    5.24
       DOS:  cpu time    0.00: real time    0.00
    CHARGE:  cpu time    0.27: real time    0.27
    MIXING:  cpu time    0.06: real time    0.06
    --------------------------------------------
      LOOP:  cpu time    6.95: real time    6.97

 eigenvalue-minimisations  :   390
 total energy-change (2. order) :-0.3938920E-02  (-0.4504473E-04)
 number of electron       7.9999999 magnetization       0.0323537
 augmentation part        0.6833159 magnetization       0.0001001

 DIPCOR: dipole corrections for dipol
 direction  3 min pos    87,
 dipolmoment           0.000000      0.000000     -0.085021 electrons x Angstroem
 Tr[quadrupol]        -1.173640

 energy correction for charged system         0.000000 eV
 dipol+quadrupol energy correction           -0.000370 eV
 added-field ion interaction         -0.009817 eV  (added to PSCEN)


 Broyden mixing:
  rms(total) = 0.46463E-02    rms(broyden)= 0.46286E-02
  rms(prec ) = 0.47418E-02
  weight for this iteration     100.00

 eigenvalues of (default mixing * dielectric matrix)
  average eigenvalue GAMMA=   1.4671
  4.9547  3.3848  2.1803  1.7218  1.1571  1.1571  0.4033  0.8209  0.7156  0.7156
  0.6690  0.5960  0.5960

 Free energy of the ion-electron system (eV)
  ---------------------------------------------------
  alpha Z        PSCENC =         0.11493717
  Ewald energy   TEWEN  =        80.86662173
  -1/2 Hartree   DENC   =      -475.83698144
  -exchange  EXHF       =         0.00000000
  -V(xc)+E(xc)   XCENC  =        33.89388337
  PAW double counting   =       534.64765694     -536.72267820
  entropy T*S    EENTRO =         0.00532111
  eigenvalues    EBANDS =      -108.49483292
  atomic energy  EATOM  =       457.32929435
  ---------------------------------------------------
  free energy    TOTEN  =       -14.19677788 eV

  energy without entropy =      -14.20209899  energy(sigma->0) =      -14.19855158


--------------------------------------------------------------------------------------------------------




----------------------------------------- Iteration    1(  19)  ---------------------------------------


    POTLOK:  cpu time    1.40: real time    1.40
    SETDIJ:  cpu time    0.01: real time    0.01
     EDDAV:  cpu time    5.26: real time    5.27
       DOS:  cpu time    0.00: real time    0.00
    CHARGE:  cpu time    0.27: real time    0.27
    MIXING:  cpu time    0.07: real time    0.07
    --------------------------------------------
      LOOP:  cpu time    7.02: real time    7.04

 eigenvalue-minimisations  :   402
 total energy-change (2. order) :-0.1806309E-02  (-0.5223691E-05)
 number of electron       7.9999999 magnetization       0.0373405
 augmentation part        0.6834102 magnetization       0.0075783

 DIPCOR: dipole corrections for dipol
 direction  3 min pos    87,
 dipolmoment           0.000000      0.000000     -0.087677 electrons x Angstroem
 Tr[quadrupol]        -1.174781

 energy correction for charged system         0.000000 eV
 dipol+quadrupol energy correction           -0.000394 eV
 added-field ion interaction         -0.010124 eV  (added to PSCEN)


 Broyden mixing:
  rms(total) = 0.13354E-02    rms(broyden)= 0.13344E-02
  rms(prec ) = 0.14949E-02
  weight for this iteration     100.00

 eigenvalues of (default mixing * dielectric matrix)
  average eigenvalue GAMMA=   1.6101
  6.1147  3.8284  2.2666  2.2666  1.3879  1.0999  1.0999  0.4034  0.7560  0.7560
  0.7070  0.6113  0.6113  0.6325

 Free energy of the ion-electron system (eV)
  ---------------------------------------------------
  alpha Z        PSCENC =         0.11460695
  Ewald energy   TEWEN  =        80.86662173
  -1/2 Hartree   DENC   =      -475.81642839
  -exchange  EXHF       =         0.00000000
  -V(xc)+E(xc)   XCENC  =        33.89062839
  PAW double counting   =       534.51053326     -536.58515993
  entropy T*S    EENTRO =         0.00518165
  eigenvalues    EBANDS =      -108.51386220
  atomic energy  EATOM  =       457.32929435
  ---------------------------------------------------
  free energy    TOTEN  =       -14.19858419 eV

  energy without entropy =      -14.20376584  energy(sigma->0) =      -14.20031140


--------------------------------------------------------------------------------------------------------




----------------------------------------- Iteration    1(  20)  ---------------------------------------


    POTLOK:  cpu time    1.38: real time    1.38
    SETDIJ:  cpu time    0.02: real time    0.02
     EDDAV:  cpu time    5.18: real time    5.18
       DOS:  cpu time    0.00: real time    0.00
    CHARGE:  cpu time    0.27: real time    0.27
    MIXING:  cpu time    0.07: real time    0.07
    --------------------------------------------
      LOOP:  cpu time    6.91: real time    6.92

 eigenvalue-minimisations  :   392
 total energy-change (2. order) :-0.7282255E-03  (-0.2257420E-05)
 number of electron       7.9999999 magnetization       0.0380306
 augmentation part        0.6834410 magnetization       0.0103998

 DIPCOR: dipole corrections for dipol
 direction  3 min pos    87,
 dipolmoment           0.000000      0.000000     -0.090015 electrons x Angstroem
 Tr[quadrupol]        -1.175249

 energy correction for charged system         0.000000 eV
 dipol+quadrupol energy correction           -0.000415 eV
 added-field ion interaction         -0.010394 eV  (added to PSCEN)


 Broyden mixing:
  rms(total) = 0.14036E-02    rms(broyden)= 0.13961E-02
  rms(prec ) = 0.14668E-02
  weight for this iteration     100.00

 eigenvalues of (default mixing * dielectric matrix)
  average eigenvalue GAMMA=   1.6653
  7.0683  4.0270  2.4516  2.3022  1.5194  1.1456  1.1456  0.4034  0.8561  0.7576
  0.7576  0.7074  0.6083  0.6083  0.6207

 Free energy of the ion-electron system (eV)
  ---------------------------------------------------
  alpha Z        PSCENC =         0.11431576
  Ewald energy   TEWEN  =        80.86662173
  -1/2 Hartree   DENC   =      -475.80875515
  -exchange  EXHF       =         0.00000000
  -V(xc)+E(xc)   XCENC  =        33.88929639
  PAW double counting   =       534.42293650     -536.49743166
  entropy T*S    EENTRO =         0.00505987
  eigenvalues    EBANDS =      -108.52065021
  atomic energy  EATOM  =       457.32929435
  ---------------------------------------------------
  free energy    TOTEN  =       -14.19931241 eV

  energy without entropy =      -14.20437229  energy(sigma->0) =      -14.20099904


--------------------------------------------------------------------------------------------------------




----------------------------------------- Iteration    1(  21)  ---------------------------------------


    POTLOK:  cpu time    1.31: real time    1.31
    SETDIJ:  cpu time    0.01: real time    0.01
     EDDAV:  cpu time    5.06: real time    5.07
       DOS:  cpu time    0.00: real time    0.00
    CHARGE:  cpu time    0.29: real time    0.29
    MIXING:  cpu time    0.08: real time    0.08
    --------------------------------------------
      LOOP:  cpu time    6.76: real time    6.78

 eigenvalue-minimisations  :   418
 total energy-change (2. order) :-0.4140289E-04  (-0.4993099E-06)
 number of electron       7.9999999 magnetization       0.0379822
 augmentation part        0.6833862 magnetization       0.0093257

 DIPCOR: dipole corrections for dipol
 direction  3 min pos    78,
 dipolmoment           0.000000      0.000000     -0.091494 electrons x Angstroem
 Tr[quadrupol]        -1.322635

 energy correction for charged system         0.000000 eV
 dipol+quadrupol energy correction           -0.000429 eV
 added-field ion interaction          0.049686 eV  (added to PSCEN)


 Broyden mixing:
  rms(total) = 0.20889E-03    rms(broyden)= 0.20673E-03
  rms(prec ) = 0.35420E-03
  weight for this iteration     100.00

 eigenvalues of (default mixing * dielectric matrix)
  average eigenvalue GAMMA=   1.7101
  7.8259  4.1713  2.7799  2.1903  1.7593  1.2750  1.0983  1.0983  0.4034  0.7722
  0.7722  0.6098  0.6098  0.6880  0.6880  0.6194

 Free energy of the ion-electron system (eV)
  ---------------------------------------------------
  alpha Z        PSCENC =         0.17438154
  Ewald energy   TEWEN  =        80.86662173
  -1/2 Hartree   DENC   =      -475.81847338
  -exchange  EXHF       =         0.00000000
  -V(xc)+E(xc)   XCENC  =        33.88979537
  PAW double counting   =       534.44489388     -536.51948127
  entropy T*S    EENTRO =         0.00511854
  eigenvalues    EBANDS =      -108.57150457
  atomic energy  EATOM  =       457.32929435
  ---------------------------------------------------
  free energy    TOTEN  =       -14.19935382 eV

  energy without entropy =      -14.20447235  energy(sigma->0) =      -14.20105999


--------------------------------------------------------------------------------------------------------




----------------------------------------- Iteration    1(  22)  ---------------------------------------


    POTLOK:  cpu time    1.38: real time    1.38
    SETDIJ:  cpu time    0.01: real time    0.01
     EDDAV:  cpu time    5.98: real time    6.19
       DOS:  cpu time    0.00: real time    0.00
    CHARGE:  cpu time    0.18: real time    0.18
    MIXING:  cpu time    0.07: real time    0.07
    --------------------------------------------
      LOOP:  cpu time    7.62: real time    7.84

 eigenvalue-minimisations  :   424
 total energy-change (2. order) :-0.1998849E-04  (-0.2000637E-06)
 number of electron       7.9999999 magnetization       0.0371813
 augmentation part        0.6833730 magnetization       0.0086652

 DIPCOR: dipole corrections for dipol
 direction  3 min pos    74,
 dipolmoment           0.000000      0.000000     -0.092365 electrons x Angstroem
 Tr[quadrupol]        -1.389582

 energy correction for charged system         0.000000 eV
 dipol+quadrupol energy correction           -0.000437 eV
 added-field ion interaction          0.077191 eV  (added to PSCEN)


 Broyden mixing:
  rms(total) = 0.29055E-03    rms(broyden)= 0.29053E-03
  rms(prec ) = 0.34622E-03
  weight for this iteration     100.00

 eigenvalues of (default mixing * dielectric matrix)
  average eigenvalue GAMMA=   1.7199
  8.1340  4.2352  2.9311  2.1938  2.0100  1.4356  1.1447  1.1447  0.4034  0.8676
  0.7679  0.7679  0.6080  0.6080  0.7220  0.6318  0.6318

 Free energy of the ion-electron system (eV)
  ---------------------------------------------------
  alpha Z        PSCENC =         0.20187882
  Ewald energy   TEWEN  =        80.86662173
  -1/2 Hartree   DENC   =      -475.81898327
  -exchange  EXHF       =         0.00000000
  -V(xc)+E(xc)   XCENC  =        33.88981312
  PAW double counting   =       534.43270854     -536.50730040
  entropy T*S    EENTRO =         0.00511066
  eigenvalues    EBANDS =      -108.59851735
  atomic energy  EATOM  =       457.32929435
  ---------------------------------------------------
  free energy    TOTEN  =       -14.19937380 eV

  energy without entropy =      -14.20448446  energy(sigma->0) =      -14.20107736


--------------------------------------------------------------------------------------------------------




----------------------------------------- Iteration    1(  23)  ---------------------------------------


    POTLOK:  cpu time    1.32: real time    1.33
    SETDIJ:  cpu time    0.01: real time    0.01
     EDDAV:  cpu time    4.48: real time    4.48
       DOS:  cpu time    0.00: real time    0.00
    CHARGE:  cpu time    0.24: real time    0.24
    MIXING:  cpu time    0.09: real time    0.09
    --------------------------------------------
      LOOP:  cpu time    6.15: real time    6.15

 eigenvalue-minimisations  :   392
 total energy-change (2. order) :-0.1397231E-03  (-0.1678274E-06)
 number of electron       7.9999999 magnetization       0.0366061
 augmentation part        0.6833891 magnetization       0.0076884

 DIPCOR: dipole corrections for dipol
 direction  3 min pos    72,
 dipolmoment           0.000000      0.000000     -0.092914 electrons x Angstroem
 Tr[quadrupol]        -1.423686

 energy correction for charged system         0.000000 eV
 dipol+quadrupol energy correction           -0.000442 eV
 added-field ion interaction          0.091247 eV  (added to PSCEN)


 Broyden mixing:
  rms(total) = 0.23504E-03    rms(broyden)= 0.23373E-03
  rms(prec ) = 0.25322E-03
  weight for this iteration     100.00

 eigenvalues of (default mixing * dielectric matrix)
  average eigenvalue GAMMA=   1.7815
  8.3891  4.3812  3.4688  2.5812  2.2451  1.6108  1.2719  1.1124  1.1124  0.4034
  0.7825  0.7825  0.7271  0.7271  0.6066  0.6066  0.6345  0.6240

 Free energy of the ion-electron system (eV)
  ---------------------------------------------------
  alpha Z        PSCENC =         0.21592915
  Ewald energy   TEWEN  =        80.86662173
  -1/2 Hartree   DENC   =      -475.81556885
  -exchange  EXHF       =         0.00000000
  -V(xc)+E(xc)   XCENC  =        33.88951543
  PAW double counting   =       534.42697359     -536.50154343
  entropy T*S    EENTRO =         0.00513337
  eigenvalues    EBANDS =      -108.61586888
  atomic energy  EATOM  =       457.32929435
  ---------------------------------------------------
  free energy    TOTEN  =       -14.19951353 eV

  energy without entropy =      -14.20464689  energy(sigma->0) =      -14.20122465


--------------------------------------------------------------------------------------------------------




----------------------------------------- Iteration    1(  24)  ---------------------------------------


    POTLOK:  cpu time    1.26: real time    1.26
    SETDIJ:  cpu time    0.01: real time    0.01
     EDDAV:  cpu time    4.17: real time    4.18
       DOS:  cpu time    0.00: real time    0.00
    CHARGE:  cpu time    0.20: real time    0.20
    MIXING:  cpu time    0.08: real time    0.08
    --------------------------------------------
      LOOP:  cpu time    5.73: real time    5.73

 eigenvalue-minimisations  :   396
 total energy-change (2. order) :-0.8413112E-04  (-0.1017218E-06)
 number of electron       7.9999999 magnetization       0.0365017
 augmentation part        0.6833992 magnetization       0.0076130

 DIPCOR: dipole corrections for dipol
 direction  3 min pos    72,
 dipolmoment           0.000000      0.000000     -0.093221 electrons x Angstroem
 Tr[quadrupol]        -1.424141

 energy correction for charged system         0.000000 eV
 dipol+quadrupol energy correction           -0.000445 eV
 added-field ion interaction          0.091548 eV  (added to PSCEN)


 Broyden mixing:
  rms(total) = 0.19517E-03    rms(broyden)= 0.19514E-03
  rms(prec ) = 0.20373E-03
  weight for this iteration     100.00

 eigenvalues of (default mixing * dielectric matrix)
  average eigenvalue GAMMA=   1.8152
  8.6001  4.9004  3.9196  2.7074  2.2447  1.7578  1.3450  1.1453  1.1453  0.4034
  0.8447  0.7976  0.7976  0.6076  0.6076  0.7308  0.6736  0.6109  0.6496

 Free energy of the ion-electron system (eV)
  ---------------------------------------------------
  alpha Z        PSCENC =         0.21622749
  Ewald energy   TEWEN  =        80.86662173
  -1/2 Hartree   DENC   =      -475.81416114
  -exchange  EXHF       =         0.00000000
  -V(xc)+E(xc)   XCENC  =        33.88940120
  PAW double counting   =       534.44016330     -536.51473884
  entropy T*S    EENTRO =         0.00513200
  eigenvalues    EBANDS =      -108.61753776
  atomic energy  EATOM  =       457.32929435
  ---------------------------------------------------
  free energy    TOTEN  =       -14.19959766 eV

  energy without entropy =      -14.20472966  energy(sigma->0) =      -14.20130833


--------------------------------------------------------------------------------------------------------




----------------------------------------- Iteration    1(  25)  ---------------------------------------


    POTLOK:  cpu time    1.23: real time    1.23
    SETDIJ:  cpu time    0.01: real time    0.01
     EDDAV:  cpu time    4.22: real time    4.22
       DOS:  cpu time    0.00: real time    0.00
    CHARGE:  cpu time    0.21: real time    0.21
    MIXING:  cpu time    0.10: real time    0.10
    --------------------------------------------
      LOOP:  cpu time    5.77: real time    5.78

 eigenvalue-minimisations  :   418
 total energy-change (2. order) :-0.1624107E-04  (-0.2120840E-07)
 number of electron       7.9999999 magnetization       0.0363600
 augmentation part        0.6833947 magnetization       0.0077240

 DIPCOR: dipole corrections for dipol
 direction  3 min pos    73,
 dipolmoment           0.000000      0.000000     -0.093358 electrons x Angstroem
 Tr[quadrupol]        -1.407551

 energy correction for charged system         0.000000 eV
 dipol+quadrupol energy correction           -0.000446 eV
 added-field ion interaction          0.084852 eV  (added to PSCEN)


 Broyden mixing:
  rms(total) = 0.11544E-03    rms(broyden)= 0.11470E-03
  rms(prec ) = 0.12118E-03
  weight for this iteration     100.00

 eigenvalues of (default mixing * dielectric matrix)
  average eigenvalue GAMMA=   1.8591
  8.9183  5.5857  4.0643  2.7230  2.2649  2.0592  1.4752  1.1694  1.1694  1.1158
  0.4034  0.8090  0.8090  0.7451  0.7451  0.6074  0.6074  0.6741  0.6272  0.6091

 Free energy of the ion-electron system (eV)
  ---------------------------------------------------
  alpha Z        PSCENC =         0.20952986
  Ewald energy   TEWEN  =        80.86662173
  -1/2 Hartree   DENC   =      -475.81460699
  -exchange  EXHF       =         0.00000000
  -V(xc)+E(xc)   XCENC  =        33.88942839
  PAW double counting   =       534.44533498     -536.51992979
  entropy T*S    EENTRO =         0.00511786
  eigenvalues    EBANDS =      -108.61040429
  atomic energy  EATOM  =       457.32929435
  ---------------------------------------------------
[...]
 added-field ion interaction          0.003144 eV  (added to PSCEN)


 Broyden mixing:
  rms(total) = 0.92346E-04    rms(broyden)= 0.91712E-04
  rms(prec ) = 0.10150E-03
  weight for this iteration     100.00

 Free energy of the ion-electron system (eV)
  ---------------------------------------------------
  alpha Z        PSCENC =         0.12793865
  Ewald energy   TEWEN  =        84.27309336
  -1/2 Hartree   DENC   =      -478.49547841
  -exchange  EXHF       =         0.00000000
  -V(xc)+E(xc)   XCENC  =        34.02481898
  PAW double counting   =       545.42078531     -547.51798182
  entropy T*S    EENTRO =         0.00512446
  eigenvalues    EBANDS =      -109.38319601
  atomic energy  EATOM  =       457.32929435
  ---------------------------------------------------
  free energy    TOTEN  =       -14.21560113 eV

  energy without entropy =      -14.22072559  energy(sigma->0) =      -14.21730928


--------------------------------------------------------------------------------------------------------




----------------------------------------- Iteration   35(   2)  ---------------------------------------


    POTLOK:  cpu time    1.02: real time    1.02
    SETDIJ:  cpu time    0.01: real time    0.01
     EDDAV:  cpu time    3.00: real time    3.00
       DOS:  cpu time    0.00: real time    0.00
    --------------------------------------------
      LOOP:  cpu time    4.03: real time    4.03

 eigenvalue-minimisations  :   384
 total energy-change (2. order) :-0.2277204E-06  (-0.1573078E-07)
 number of electron       7.9999990 magnetization       0.0364084
 augmentation part        0.6914772 magnetization       0.0076300

 DIPCOR: dipole corrections for dipol
 direction  3 min pos    85,
 dipolmoment           0.000000      0.000000     -0.080245 electrons x Angstroem
 Tr[quadrupol]        -1.163470

 energy correction for charged system         0.000000 eV
 dipol+quadrupol energy correction           -0.000330 eV
 added-field ion interaction          0.003143 eV  (added to PSCEN)


 Free energy of the ion-electron system (eV)
  ---------------------------------------------------
  alpha Z        PSCENC =         0.12793732
  Ewald energy   TEWEN  =        84.27309336
  -1/2 Hartree   DENC   =      -478.49644688
  -exchange  EXHF       =         0.00000000
  -V(xc)+E(xc)   XCENC  =        34.02487083
  PAW double counting   =       545.42988413     -547.52708777
  entropy T*S    EENTRO =         0.00512030
  eigenvalues    EBANDS =      -109.38226699
  atomic energy  EATOM  =       457.32929435
  ---------------------------------------------------
  free energy    TOTEN  =       -14.21560136 eV

  energy without entropy =      -14.22072165  energy(sigma->0) =      -14.21730812


--------------------------------------------------------------------------------------------------------




 average (electrostatic) potential at core
  the test charge radii are     0.7215  0.5201
  (the norm of the test charge is              1.0000)
       1 -80.5259       2 -44.6608       3 -44.6666
 
 
 
 E-fermi :  -7.0349     XC(G=0):  -0.3219     alpha+bet : -0.0722


 spin component 1

 k-point   1 :       0.0000    0.0000    0.2500
  band No.  band energies     occupation 
      1     -25.2755      1.00000
      2     -13.0643      1.00000
      3      -9.2318      1.00000
      4      -7.2057      1.01817
      5      -0.9840      0.00000
      6       0.1632      0.00000
      7       0.5182      0.00000
      8       0.6249      0.00000
      9       0.9482      0.00000
     10       1.0215      0.00000

 k-point   2 :       0.3333    0.0000    0.2500
  band No.  band energies     occupation 
      1     -25.2755      1.00000
      2     -13.0643      1.00000
      3      -9.2318      1.00000
      4      -7.2058      1.01817
      5      -0.9390      0.00000
      6       0.2369      0.00000
      7       0.3671      0.00000
      8       0.7665      0.00000
      9       0.8285      0.00000
     10       0.9292      0.00000

 k-point   3 :      -0.3333    0.0000    0.2500
  band No.  band energies     occupation 
      1     -25.2755      1.00000
      2     -13.0643      1.00000
      3      -9.2318      1.00000
      4      -7.2057      1.01817
      5      -0.9390      0.00000
      6       0.2175      0.00000
      7       0.4081      0.00000
      8       0.7304      0.00000
      9       0.8198      0.00000
     10       0.9372      0.00000

 k-point   4 :       0.0000    0.3333    0.2500
  band No.  band energies     occupation 
      1     -25.2755      1.00000
      2     -13.0643      1.00000
      3      -9.2318      1.00000
      4      -7.2058      1.01817
      5      -0.9669      0.00000
      6       0.2005      0.00000
      7       0.3696      0.00000
      8       0.6853      0.00000
      9       0.7511      0.00000
     10       0.9510      0.00000

 k-point   5 :       0.3333    0.3333    0.2500
  band No.  band energies     occupation 
      1     -25.2755      1.00000
      2     -13.0643      1.00000
      3      -9.2318      1.00000
      4      -7.2057      1.01817
      5      -0.9250      0.00000
      6       0.3453      0.00000
      7       0.3641      0.00000
      8       0.5354      0.00000
      9       0.8543      0.00000
     10       0.9402      0.00000

 k-point   6 :      -0.3333    0.3333    0.2500
  band No.  band energies     occupation 
      1     -25.2755      1.00000
      2     -13.0643      1.00000
      3      -9.2318      1.00000
      4      -7.2057      1.01817
      5      -0.9245      0.00000
      6       0.2458      0.00000
      7       0.5089      0.00000
      8       0.5461      0.00000
      9       0.8149      0.00000
     10       0.9477      0.00000

 k-point   7 :       0.0000   -0.3333    0.2500
  band No.  band energies     occupation 
      1     -25.2755      1.00000
      2     -13.0643      1.00000
      3      -9.2318      1.00000
      4      -7.2058      1.01817
      5      -0.9669      0.00000
      6       0.2113      0.00000
      7       0.3445      0.00000
      8       0.7064      0.00000
      9       0.8003      0.00000
     10       0.8754      0.00000

 k-point   8 :       0.3333   -0.3333    0.2500
  band No.  band energies     occupation 
      1     -25.2755      1.00000
      2     -13.0643      1.00000
      3      -9.2318      1.00000
      4      -7.2057      1.01817
      5      -0.9245      0.00000
      6       0.2576      0.00000
      7       0.4690      0.00000
      8       0.5571      0.00000
      9       0.8401      0.00000
     10       0.9438      0.00000

 k-point   9 :      -0.3333   -0.3333    0.2500
  band No.  band energies     occupation 
      1     -25.2755      1.00000
      2     -13.0643      1.00000
      3      -9.2318      1.00000
      4      -7.2057      1.01817
      5      -0.9249      0.00000
      6       0.3259      0.00000
      7       0.3779      0.00000
      8       0.5525      0.00000
      9       0.8506      0.00000
     10       0.9500      0.00000

 spin component 2

 k-point   1 :       0.0000    0.0000    0.2500
  band No.  band energies     occupation 
      1     -25.2325      1.00000
      2     -13.0488      1.00000
      3      -9.2101      1.00000
      4      -7.1118      0.98183
      5      -0.9810      0.00000
      6       0.1668      0.00000
      7       0.5205      0.00000
      8       0.6254      0.00000
      9       0.9504      0.00000
     10       1.0223      0.00000

 k-point   2 :       0.3333    0.0000    0.2500
  band No.  band energies     occupation 
      1     -25.2325      1.00000
      2     -13.0488      1.00000
      3      -9.2101      1.00000
      4      -7.1118      0.98184
      5      -0.9358      0.00000
      6       0.2386      0.00000
      7       0.3693      0.00000
      8       0.7687      0.00000
      9       0.8312      0.00000
     10       0.9303      0.00000

 k-point   3 :      -0.3333    0.0000    0.2500
  band No.  band energies     occupation 
      1     -25.2325      1.00000
      2     -13.0488      1.00000
      3      -9.2101      1.00000
      4      -7.1118      0.98183
      5      -0.9357      0.00000
      6       0.2193      0.00000
      7       0.4103      0.00000
      8       0.7323      0.00000
      9       0.8228      0.00000
     10       0.9385      0.00000

 k-point   4 :       0.0000    0.3333    0.2500
  band No.  band energies     occupation 
      1     -25.2325      1.00000
      2     -13.0488      1.00000
      3      -9.2101      1.00000
      4      -7.1118      0.98184
      5      -0.9638      0.00000
      6       0.2031      0.00000
      7       0.3715      0.00000
      8       0.6884      0.00000
      9       0.7534      0.00000
     10       0.9519      0.00000

 k-point   5 :       0.3333    0.3333    0.2500
  band No.  band energies     occupation 
      1     -25.2325      1.00000
      2     -13.0488      1.00000
      3      -9.2101      1.00000
      4      -7.1118      0.98183
      5      -0.9216      0.00000
      6       0.3457      0.00000
      7       0.3665      0.00000
      8       0.5371      0.00000
      9       0.8579      0.00000
     10       0.9434      0.00000

 k-point   6 :      -0.3333    0.3333    0.2500
  band No.  band energies     occupation 
      1     -25.2325      1.00000
      2     -13.0488      1.00000
      3      -9.2101      1.00000
      4      -7.1118      0.98183
      5      -0.9212      0.00000
      6       0.2471      0.00000
      7       0.5113      0.00000
      8       0.5470      0.00000
      9       0.8178      0.00000
     10       0.9508      0.00000

 k-point   7 :       0.0000   -0.3333    0.2500
  band No.  band energies     occupation 
      1     -25.2325      1.00000
      2     -13.0488      1.00000
      3      -9.2101      1.00000
      4      -7.1118      0.98184
      5      -0.9638      0.00000
      6       0.2141      0.00000
      7       0.3462      0.00000
      8       0.7101      0.00000
      9       0.8023      0.00000
     10       0.8764      0.00000

 k-point   8 :       0.3333   -0.3333    0.2500
  band No.  band energies     occupation 
      1     -25.2325      1.00000
      2     -13.0488      1.00000
      3      -9.2101      1.00000
      4      -7.1118      0.98183
      5      -0.9212      0.00000
      6       0.2588      0.00000
      7       0.4714      0.00000
      8       0.5579      0.00000
      9       0.8437      0.00000
     10       0.9465      0.00000

 k-point   9 :      -0.3333   -0.3333    0.2500
  band No.  band energies     occupation 
      1     -25.2325      1.00000
      2     -13.0488      1.00000
      3      -9.2101      1.00000
      4      -7.1118      0.98182
      5      -0.9216      0.00000
      6       0.3269      0.00000
      7       0.3798      0.00000
      8       0.5541      0.00000
      9       0.8540      0.00000
     10       0.9535      0.00000


--------------------------------------------------------------------------------------------------------


 soft charge-density along one line, spin component           1
         0         1         2         3         4         5         6         7         8         9
 total charge-density along one line
 
 soft charge-density along one line, spin component           2
         0         1         2         3         4         5         6         7         8         9
 total charge-density along one line
 
 pseudopotential strength for first ion, spin component:           1
 13.809 -16.929  -0.094  -0.026  -0.072   0.118   0.032   0.090
-16.929  20.786   0.120   0.033   0.091  -0.151  -0.042  -0.115
 -0.094   0.120 -10.503  -0.045   0.044  13.014   0.060  -0.058
 -0.026   0.033  -0.045 -10.365   0.017   0.060  12.829  -0.022
 -0.072   0.091   0.044   0.017 -10.545  -0.058  -0.022  13.070
  0.118  -0.151  13.014   0.060  -0.058 -16.051  -0.081   0.079
  0.032  -0.042   0.060  12.829  -0.022  -0.081 -15.803   0.030
  0.090  -0.115  -0.058  -0.022  13.070   0.079   0.030 -16.128
 pseudopotential strength for first ion, spin component:           2
 13.793 -16.910  -0.094  -0.026  -0.072   0.118   0.032   0.090
-16.910  20.760   0.120   0.033   0.091  -0.151  -0.041  -0.115
 -0.094   0.120 -10.494  -0.050   0.043  13.001   0.068  -0.058
 -0.026   0.033  -0.050 -10.338   0.017   0.068  12.791  -0.023
 -0.072   0.091   0.043   0.017 -10.538  -0.058  -0.023  13.060
  0.118  -0.151  13.001   0.068  -0.058 -16.034  -0.092   0.078
  0.032  -0.041   0.068  12.791  -0.023  -0.092 -15.750   0.031
  0.090  -0.115  -0.058  -0.023  13.060   0.078   0.031 -16.114
 total augmentation occupancy for first ion, spin component:           1
  2.759   0.454   0.326   0.090   0.249   0.130   0.035   0.099
  0.454   0.127   0.318   0.088   0.242   0.057   0.016   0.044
  0.326   0.318   2.314   0.055  -0.050   0.356   0.065  -0.060
  0.090   0.088   0.055   2.145  -0.019   0.065   0.155  -0.023
  0.249   0.242  -0.050  -0.019   2.363  -0.060  -0.023   0.415
  0.130   0.057   0.356   0.065  -0.060   0.060   0.015  -0.017
  0.035   0.016   0.065   0.155  -0.023   0.015   0.013  -0.006
  0.099   0.044  -0.060  -0.023   0.415  -0.017  -0.006   0.076
 total augmentation occupancy for first ion, spin component:           2
 -0.003  -0.002   0.000   0.000   0.000  -0.000  -0.000  -0.000
 -0.002  -0.000  -0.000   0.000  -0.000  -0.000  -0.000  -0.000
  0.000  -0.000   0.003  -0.010  -0.000  -0.000  -0.000   0.000
  0.000   0.000  -0.010   0.035   0.001  -0.000   0.001   0.000
  0.000  -0.000  -0.000   0.001  -0.000   0.000   0.000  -0.001
 -0.000  -0.000  -0.000  -0.000   0.000  -0.000  -0.000   0.000
 -0.000  -0.000  -0.000   0.001   0.000  -0.000  -0.000   0.000
 -0.000  -0.000   0.000   0.000  -0.001   0.000   0.000  -0.000


------------------------ aborting loop because EDIFF is reached ----------------------------------------


    CHARGE:  cpu time    0.16: real time    0.16
    FORLOC:  cpu time    0.03: real time    0.03
    FORNL :  cpu time    0.78: real time    0.78
    STRESS:  cpu time    2.43: real time    2.43
    FORCOR:  cpu time    0.99: real time    0.99
    FORHAR:  cpu time    0.12: real time    0.12
    MIXING:  cpu time    0.02: real time    0.02

  FORCE on cell =-STRESS in cart. coord.  units (eV):
  Direction    XX          YY          ZZ          XY          YZ          ZX
  --------------------------------------------------------------------------------------
  Alpha Z     0.12512     0.12512     0.12512
  Ewald      88.19228    49.09429   -53.01348   -24.00807    23.20065    -9.08331
  Hartree   186.88119   167.13296   124.48346    -4.07219     4.11594    -1.55453
  E(xc)     -35.99761   -36.08599   -36.39207    -0.08876     0.09898    -0.03460
  Local    -353.86276  -301.59838  -178.56382    21.29734   -20.27758     8.03553
  n-local   -30.44699   -30.71855   -30.83296    -0.36484     0.04523    -0.11429
  augment     6.12370     6.55211     8.02781     0.43192    -0.47723     0.16798
  Kinetic   138.94927   145.45710   166.10503     6.81354    -6.69753     2.58473
  Fock        0.00000     0.00000     0.00000     0.00000     0.00000     0.00000
  -------------------------------------------------------------------------------------
  Total      -0.03580    -0.04134    -0.06090     0.00895     0.00846     0.00151
  in kB      -0.03200    -0.03695    -0.05444     0.00800     0.00757     0.00135
  external pressure =       -0.04 kB  Pullay stress =        0.00 kB


 VOLUME and BASIS-vectors are now :
 -----------------------------------------------------------------------------
  energy-cutoff  :      500.00
  volume of cell :     1792.22
      direct lattice vectors                 reciprocal lattice vectors
    10.160000000  0.000000000  0.000000000     0.098425197  0.000000000  0.000000000
     0.000000000 11.760000000  0.000000000     0.000000000  0.085034014  0.000000000
     0.000000000  0.000000000 15.000000000     0.000000000  0.000000000  0.066666667

  length of vectors
    10.160000000 11.760000000 15.000000000     0.098425197  0.085034014  0.066666667


 FORCES acting on ions
    electron-ion (+dipol)            ewald-force                    non-local-force                 convergence-correction
 -----------------------------------------------------------------------------------------------
   0.370E+02 0.487E+02 0.133E+02   -.660E+02 -.868E+02 -.238E+02   0.290E+02 0.381E+02 0.105E+02   -.181E-03 0.668E-03 -.197E-02
   -.875E+02 0.718E+00 0.206E+01   0.958E+02 -.749E+00 -.225E+01   -.831E+01 0.351E-01 0.186E+00   0.191E-03 0.798E-04 -.157E-03
   0.273E+02 -.799E+02 -.238E+02   -.298E+02 0.875E+02 0.260E+02   0.256E+01 -.759E+01 -.225E+01   0.709E-05 0.164E-03 -.131E-03
 -----------------------------------------------------------------------------------------------
   -.232E+02 -.305E+02 -.840E+01   0.711E-14 0.000E+00 0.000E+00   0.232E+02 0.305E+02 0.839E+01   0.178E-04 0.912E-03 -.226E-02
 
 
 POSITION                                       TOTAL-FORCE (eV/Angst)
 -----------------------------------------------------------------------------------
     -0.00160      0.00610      0.01619         0.000368     -0.008926      0.000239
      0.97015      0.03445      0.00393        -0.008004      0.005038      0.000099
      9.89137      0.90236      0.28123         0.007636      0.003888     -0.000339
 -----------------------------------------------------------------------------------
    total drift:                               -0.002746     -0.002916     -0.007036


--------------------------------------------------------------------------------------------------------



  FREE ENERGIE OF THE ION-ELECTRON SYSTEM (eV)
  ---------------------------------------------------
  free  energy   TOTEN  =       -14.21560136 eV

  energy  without entropy=      -14.22072165  energy(sigma->0) =      -14.21730812
 
 d Force = 0.1770557E-05[ 0.163E-05, 0.191E-05]  d Energy = 0.2130100E-05-0.360E-06
 d Force =-0.7409342E-02[-0.741E-02,-0.741E-02]  d Ewald  =-0.7409342E-02 0.379E-10


--------------------------------------------------------------------------------------------------------


    POTLOK:  cpu time    1.04: real time    1.04


--------------------------------------------------------------------------------------------------------


 Conjugate gradient step on ions:
 trial-energy change:   -0.000002  1 .order   -0.000002   -0.000002   -0.000002
  (g-gl).g = 0.280E-04      g.g   = 0.151E-04  gl.gl    = 0.197E-03
 g(Force)  = 0.151E-04   g(Stress)= 0.000E+00 ortho     =-0.960E-06
 gamma     =   0.14218
 trial     =   0.12748
 opt step  =   0.50991  (harmonic =   0.86356) maximal distance =0.00033532
 next E    =   -14.215606   (d E  =  -0.00001)


--------------------------------------------------------------------------------------------------------


  
 reached required accuracy - stopping structural energy minimisation
     LOOP+:  cpu time   13.92: real time   13.93
    4ORBIT:  cpu time    0.00: real time    0.00

 total amount of memory used by VASP on root node   140302. kBytes
========================================================================

   base      :      30000. kBytes
   nonlr-proj:         95. kBytes
   fftplans  :      22744. kBytes
   grid      :      54677. kBytes
   one-center:          6. kBytes
   wavefun   :      32780. kBytes
 
  
  
 General timing and accounting informations for this job:
 ========================================================
  
                  Total CPU time used (sec):     1183.867
                            User time (sec):     1180.845
                          System time (sec):        3.022
                         Elapsed time (sec):     1186.806
  
                   Maximum memory used (kb):      222768.
                   Average memory used (kb):           0.
  
                          Minor page faults:      1380782
                          Major page faults:            2
                 Voluntary context switches:         3468
