<?xml version="1.0" encoding="ISO-8859-1"?>
<modeling>
 <generator>
  <i name="program" type="string">vasp </i>
  <i name="version" type="string">5.3.3  </i>
  <i name="subversion" type="string">18Dez12 (build Aug 26 2015 16:06:49) complex                          parallel </i>
  <i name="platform" type="string">LinuxIFC </i>
  <i name="date" type="string">2020 05 07 </i>
  <i name="time" type="string">16:12:40 </i>
 </generator>
 <incar>
  <i type="string" name="SYSTEM"> Beta12Borophene !The name of the system</i>
  <i type="string" name="PREC">normal   !normal or accurate</i>
  <i type="string" name="ALGO"> Normal   !def=Normal. Sets IALGO and LD</i>
  <i type="int" name="ISPIN">     2</i>
  <i type="int" name="NELM">    60</i>
  <i type="int" name="IBRION">     2</i>
  <i name="EDIFF">      0.00000100</i>
  <i name="EDIFFG">     -0.01000000</i>
  <i type="int" name="NSW">  1000</i>
  <i type="int" name="ISIF">     2</i>
  <i name="ENCUT">    500.00000000</i>
  <i name="POTIM">      0.50000000</i>
  <i type="string" name="LREAL"> Auto   !values=.FALSE. or Auto  (def=.F</i>
  <i type="int" name="ISMEAR">     1</i>
  <i name="SIGMA">      0.10000000</i>
  <i type="logical" name="LWAVE"> F  </i>
  <i type="logical" name="LCHARG"> F  </i>
  <i type="logical" name="LVTOT"> F  </i>
  <i type="logical" name="LELF"> F  </i>
  <i type="int" name="NELM">    60</i>
  <i type="string" name="GGA"> PE   !GGA flavor: PE=PBE, RP=RPBE, RE=r</i>
  <i type="logical" name="LDIPOL"> T  </i>
  <i type="int" name="IDIPOL">     3</i>
 </incar>
 <kpoints>
  <generation param="Monkhorst-Pack">
   <v type="int" name="divisions">       3        3        2 </v>
   <v name="usershift">      0.00000000       0.00000000       0.00000000 </v>
   <v name="genvec1">      0.33333333       0.00000000       0.00000000 </v>
   <v name="genvec2">      0.00000000       0.33333333       0.00000000 </v>
   <v name="genvec3">      0.00000000       0.00000000       0.50000000 </v>
   <v name="shift">      0.00000000       0.00000000       0.50000000 </v>
  </generation>
  <varray name="kpointlist" >
   <v>       0.00000000       0.00000000       0.25000000 </v>
   <v>       0.33333333       0.00000000       0.25000000 </v>
   <v>      -0.33333333       0.00000000       0.25000000 </v>
   <v>       0.00000000       0.33333333       0.25000000 </v>
   <v>       0.33333333       0.33333333       0.25000000 </v>
   <v>      -0.33333333       0.33333333       0.25000000 </v>
   <v>       0.00000000      -0.33333333       0.25000000 </v>
   <v>       0.33333333      -0.33333333       0.25000000 </v>
   <v>      -0.33333333      -0.33333333       0.25000000 </v>
  </varray>
  <varray name="weights" >
   <v>       0.11111111 </v>
   <v>       0.11111111 </v>
   <v>       0.11111111 </v>
   <v>       0.11111111 </v>
   <v>       0.11111111 </v>
   <v>       0.11111111 </v>
   <v>       0.11111111 </v>
   <v>       0.11111111 </v>
   <v>       0.11111111 </v>
  </varray>
 </kpoints>
 <parameters>
  <separator name="general" >
   <i type="string" name="SYSTEM">Beta12Borophene !The name of the system</i>
   <i type="logical" name="LCOMPAT"> F  </i>
  </separator>
  <separator name="electronic" >
   <i type="string" name="PREC">normal</i>
   <i name="ENMAX">    500.00000000</i>
   <i name="ENAUG">    605.39200000</i>
   <i name="EDIFF">      0.00000100</i>
   <i type="int" name="IALGO">    38</i>
   <i type="int" name="IWAVPR">    11</i>
   <i type="int" name="NBANDS">    10</i>
   <i name="NELECT">      8.00000000</i>
   <i type="int" name="TURBO">     0</i>
   <i type="int" name="IRESTART">     0</i>
   <i type="int" name="NREBOOT">     0</i>
   <i type="int" name="NMIN">     0</i>
   <i name="EREF">      0.00000000</i>
   <separator name="electronic smearing" >
    <i type="int" name="ISMEAR">     1</i>
    <i name="SIGMA">      0.10000000</i>
    <i name="KSPACING">      0.50000000</i>
    <i type="logical" name="KGAMMA"> T  </i>
   </separator>
   <separator name="electronic projectors" >
    <i type="logical" name="LREAL"> T  </i>
    <v name="ROPT">     -0.00050000     -0.00050000</v>
    <i type="int" name="LMAXPAW">  -100</i>
    <i type="int" name="LMAXMIX">     2</i>
    <i type="logical" name="NLSPLINE"> F  </i>
   </separator>
   <separator name="electronic startup" >
    <i type="int" name="ISTART">     0</i>
    <i type="int" name="ICHARG">     2</i>
    <i type="int" name="INIWAV">     1</i>
   </separator>
   <separator name="electronic spin" >
    <i type="int" name="ISPIN">     2</i>
    <i type="logical" name="LNONCOLLINEAR"> F  </i>
    <v name="MAGMOM">      1.00000000      1.00000000      1.00000000</v>
    <i name="NUPDOWN">     -1.00000000</i>
    <i type="logical" name="LSORBIT"> F  </i>
    <v name="SAXIS">      0.00000000      0.00000000      1.00000000</v>
    <i type="logical" name="LSPIRAL"> F  </i>
    <v name="QSPIRAL">      0.00000000      0.00000000      0.00000000</v>
    <i type="logical" name="LZEROZ"> F  </i>
   </separator>
   <separator name="electronic exchange-correlation" >
    <i type="logical" name="LASPH"> F  </i>
    <i type="logical" name="LMETAGGA"> F  </i>
   </separator>
   <separator name="electronic convergence" >
    <i type="int" name="NELM">    60</i>
    <i type="int" name="NELMDL">    -5</i>
    <i type="int" name="NELMIN">     2</i>
    <i name="ENINI">    500.00000000</i>
    <separator name="electronic convergence detail" >
     <i type="logical" name="LDIAG"> T  </i>
     <i type="logical" name="LSUBROT"> T  </i>
     <i name="WEIMIN">      0.00100000</i>
     <i name="EBREAK">      0.00000002</i>
     <i name="DEPER">      0.30000000</i>
     <i type="int" name="NRMM">     4</i>
     <i name="TIME">      0.40000000</i>
    </separator>
   </separator>
   <separator name="electronic mixer" >
    <i name="AMIX">      0.40000000</i>
    <i name="BMIX">      1.00000000</i>
    <i name="AMIN">      0.10000000</i>
    <i name="AMIX_MAG">      1.60000000</i>
    <i name="BMIX_MAG">      1.00000000</i>
    <separator name="electronic mixer details" >
     <i type="int" name="IMIX">     4</i>
     <i type="int" name="MAXMIX">   -45</i>
     <i name="WC">    100.00000000</i>
     <i type="int" name="INIMIX">     1</i>
     <i type="int" name="MIXPRE">     1</i>
     <i type="int" name="MREMOVE">     5</i>
    </separator>
   </separator>
   <separator name="electronic dipolcorrection" >
    <i type="logical" name="LDIPOL"> T  </i>
    <i type="logical" name="LMONO"> F  </i>
    <i type="int" name="IDIPOL">     3</i>
    <i name="EPSILON">      1.00000000</i>
    <v name="DIPOL">   -100.00000000   -100.00000000   -100.00000000</v>
    <i name="EFIELD">      0.00000000</i>
   </separator>
  </separator>
  <separator name="grids" >
   <i type="int" name="NGX">    56</i>
   <i type="int" name="NGY">    64</i>
   <i type="int" name="NGZ">    84</i>
   <i type="int" name="NGXF">   112</i>
   <i type="int" name="NGYF">   128</i>
   <i type="int" name="NGZF">   168</i>
   <i type="logical" name="ADDGRID"> F  </i>
  </separator>
  <separator name="ionic" >
   <i type="int" name="NSW">  1000</i>
   <i type="int" name="IBRION">     2</i>
   <i type="int" name="ISIF">     2</i>
   <i name="PSTRESS">      0.00000000</i>
   <i name="EDIFFG">     -0.01000000</i>
   <i type="int" name="NFREE">     1</i>
   <i name="POTIM">      0.50000000</i>
   <i name="SMASS">     -3.00000000</i>
   <i name="SCALEE">      1.00000000</i>
  </separator>
  <separator name="ionic md" >
   <i name="TEBEG">      0.00010000</i>
   <i name="TEEND">      0.00010000</i>
   <i type="int" name="NBLOCK">     1</i>
   <i type="int" name="KBLOCK">  1000</i>
   <i type="int" name="NPACO">   256</i>
   <i name="APACO">     16.00000000</i>
  </separator>
  <separator name="symmetry" >
   <i type="int" name="ISYM">     2</i>
   <i name="SYMPREC">      0.00001000</i>
  </separator>
  <separator name="dos" >
   <i type="logical" name="LORBIT"> F  </i>
   <v name="RWIGS">     -1.00000000     -1.00000000</v>
   <i type="int" name="NEDOS">   301</i>
   <i name="EMIN">     10.00000000</i>
   <i name="EMAX">    -10.00000000</i>
   <i name="EFERMI">      0.00000000</i>
  </separator>
  <separator name="writing" >
   <i type="int" name="NWRITE">     2</i>
   <i type="logical" name="LWAVE"> F  </i>
   <i type="logical" name="LCHARG"> F  </i>
   <i type="logical" name="LPARD"> F  </i>
   <i type="logical" name="LVTOT"> F  </i>
   <i type="logical" name="LVHAR"> F  </i>
   <i type="logical" name="LELF"> F  </i>
   <i type="logical" name="LOPTICS"> F  </i>
   <v name="STM">      0.00000000      0.00000000      0.00000000      0.00000000      0.00000000      0.00000000      0.00000000</v>
  </separator>
  <separator name="performance" >
   <i type="int" name="NPAR">     1</i>
   <i type="int" name="NSIM">     4</i>
   <i type="int" name="NBLK">    -1</i>
   <i type="logical" name="LPLANE"> T  </i>
   <i type="logical" name="LSCALAPACK"> T  </i>
   <i type="logical" name="LSCAAWARE"> F  </i>
   <i type="logical" name="LSCALU"> F  </i>
   <i type="logical" name="LASYNC"> F  </i>
   <i type="logical" name="LORBITALREAL"> F  </i>
  </separator>
  <separator name="miscellaneous" >
   <i type="int" name="IDIOT">     3</i>
   <i type="logical" name="LMUSIC"> F  </i>
   <v name="POMASS">     16.00000000      1.00000000</v>
   <v name="DARWINR">      0.00000000      0.00000000</v>
   <v name="DARWINV">      1.00000000      1.00000000</v>
   <i type="logical" name="LCORR"> T  </i>
  </separator>
  <i type="logical" name="GGA_COMPAT"> T  </i>
  <i type="logical" name="LBERRY"> F  </i>
  <i type="int" name="ICORELEVEL">     0</i>
  <i type="logical" name="LDAU"> F  </i>
  <i type="int" name="I_CONSTRAINED_M">     0</i>
  <separator name="electronic exchange-correlation" >
   <i type="string" name="GGA">PE</i>
   <i type="int" name="VOSKOWN">     0</i>
   <i type="logical" name="LHFCALC"> F  </i>
   <i type="string" name="PRECFOCK"></i>
   <i type="logical" name="LSYMGRAD"> F  </i>
   <i type="logical" name="LHFONE"> F  </i>
   <i type="logical" name="LRHFCALC"> F  </i>
   <i type="logical" name="LTHOMAS"> F  </i>
   <i type="logical" name="LMODELHF"> F  </i>
   <i name="ENCUT4O">     -1.00000000</i>
   <i type="int" name="EXXOEP">     0</i>
   <i type="int" name="FOURORBIT">     0</i>
   <i name="AEXX">      0.00000000</i>
   <i name="HFALPHA">      0.00000000</i>
   <i name="MCALPHA">      0.00000000</i>
   <i name="ALDAX">      1.00000000</i>
   <i name="AGGAX">      1.00000000</i>
   <i name="ALDAC">      1.00000000</i>
   <i name="AGGAC">      1.00000000</i>
   <i type="int" name="NKREDX">     1</i>
   <i type="int" name="NKREDY">     1</i>
   <i type="int" name="NKREDZ">     1</i>
   <i type="logical" name="SHIFTRED"> F  </i>
   <i type="logical" name="ODDONLY"> F  </i>
   <i type="logical" name="EVENONLY"> F  </i>
   <i type="int" name="LMAXFOCK">     0</i>
   <i type="int" name="NMAXFOCKAE">     0</i>
   <i type="logical" name="LFOCKAEDFT"> F  </i>
   <i name="HFSCREEN">      0.00000000</i>
   <i name="HFSCREENC">      0.00000000</i>
   <i type="int" name="NBANDSGWLOW">     0</i>
  </separator>
  <separator name="vdW DFT" >
   <i type="logical" name="LUSE_VDW"> F  </i>
   <i name="Zab_VDW">     -0.84910000</i>
   <i name="PARAM1">      0.12340000</i>
   <i name="PARAM2">      1.00000000</i>
   <i name="PARAM3">      0.00000000</i>
  </separator>
  <separator name="model GW" >
   <i type="int" name="MODEL_GW">     0</i>
   <i name="MODEL_EPS0">    358.44480000</i>
   <i name="MODEL_ALPHA">      1.00000000</i>
  </separator>
  <separator name="linear response parameters" >
   <i type="logical" name="LEPSILON"> F  </i>
   <i type="logical" name="LRPA"> F  </i>
   <i type="logical" name="LNABLA"> F  </i>
   <i type="logical" name="LVEL"> F  </i>
   <i type="int" name="KINTER">     0</i>
   <i name="CSHIFT">      0.10000000</i>
   <i name="OMEGAMAX">     -1.00000000</i>
   <i name="DEG_THRESHOLD">      0.00200000</i>
  </separator>
  <separator name="orbital magnetization" >
   <i type="logical" name="NUCIND"> F  </i>
   <v name="MAGPOS">      0.00000000      0.00000000      0.00000000</v>
   <i type="logical" name="LNICSALL"> T  </i>
   <i type="logical" name="ORBITALMAG"> F  </i>
   <i type="logical" name="LMAGBLOCH"> F  </i>
   <i type="logical" name="LCHIMAG"> F  </i>
   <i type="logical" name="LGAUGE"> T  </i>
   <i type="int" name="MAGATOM">     0</i>
   <v name="MAGDIPOL">      0.00000000      0.00000000      0.00000000</v>
   <v name="AVECCONST">      0.00000000      0.00000000      0.00000000</v>
  </separator>
  <separator name="response functions" >
   <i type="logical" name="LADDER"> F  </i>
   <i type="logical" name="LFXC"> F  </i>
   <i type="logical" name="LHARTREE"> T  </i>
   <i type="int" name="IBSE">     0</i>
   <i type="logical" name="LTCTE"> F  </i>
   <i type="logical" name="LTETE"> F  </i>
   <i type="logical" name="LTRIPLET"> F  </i>
   <i type="logical" name="LFXCEPS"> F  </i>
   <i type="logical" name="L2ORDER"> F  </i>
   <i type="logical" name="LUSEW"> F  </i>
   <i name="ENCUTGW">     -2.00000000</i>
   <i name="ENCUTGWSOFT">     -2.00000000</i>
   <i name="ENCUTLF">     -1.00000000</i>
   <i type="int" name="LMAXMP2">    -1</i>
   <i name="SCISSOR">      0.00000000</i>
   <i type="int" name="NOMEGA">     0</i>
   <i type="int" name="NOMEGAR">     0</i>
   <i type="int" name="NBANDSGW">    -1</i>
   <i type="int" name="NBANDSO">    -1</i>
   <i type="int" name="NBANDSV">    -1</i>
   <i type="int" name="NELM">    60</i>
   <i type="int" name="DIM">     3</i>
   <i type="int" name="ANTIRES">     0</i>
   <i name="OMEGAMAX">    -30.00000000</i>
   <i name="OMEGATL">   -200.00000000</i>
   <i type="int" name="OMEGAGRID">     0</i>
   <i name="CSHIFT">     -0.10000000</i>
   <i type="logical" name="SELFENERGY"> F  </i>
   <i type="logical" name="LSPECTRAL"> F  </i>
   <i type="logical" name="ODDONLYGW"> F  </i>
   <i type="logical" name="EVENONLYGW"> F  </i>
   <i type="int" name="NKREDLFX">     1</i>
   <i type="int" name="NKREDLFY">     1</i>
   <i type="int" name="NKREDLFZ">     1</i>
   <i type="int" name="MAXMEM">  1800</i>
   <i type="int" name="TELESCOPE">     0</i>
  </separator>
 </parameters>
 <atominfo>
  <atoms>       3 </atoms>
  <types>       2 </types>
  <array name="atoms" >
   <dimension dim="1">ion</dimension>
   <field type="string">element</field>
   <field type="int">atomtype</field>
   <set>
    <rc><c>O </c><c>   1</c></rc>
    <rc><c>H </c><c>   2</c></rc>
    <rc><c>H </c><c>   2</c></rc>
   </set>
  </array>
  <array name="atomtypes" >
   <dimension dim="1">type</dimension>
   <field type="int">atomspertype</field>
   <field type="string">element</field>
   <field>mass</field>
   <field>valence</field>
   <field type="string">pseudopotential</field>
   <set>
    <rc><c>   1</c><c>O </c><c>     16.00000000</c><c>      6.00000000</c><c>  PAW_PBE O 08Apr2002                   </c></rc>
    <rc><c>   2</c><c>H </c><c>      1.00000000</c><c>      1.00000000</c><c>  PAW_PBE H 15Jun2001                   </c></rc>
   </set>
  </array>
 </atominfo>
 <structure name="initialpos" >
  <crystal>
   <varray name="basis" >
    <v>      10.16000000       0.00000000       0.00000000 </v>
    <v>       0.00000000      11.76000000       0.00000000 </v>
    <v>       0.00000000       0.00000000      15.00000000 </v>
   </varray>
   <i name="volume">   1792.22400000 </i>
   <varray name="rec_basis" >
    <v>       0.09842520       0.00000000       0.00000000 </v>
    <v>       0.00000000       0.08503401       0.00000000 </v>
    <v>       0.00000000       0.00000000       0.06666667 </v>
   </varray>
  </crystal>
  <varray name="positions" >
   <v>       0.00000000       0.00000000       0.00000000 </v>
   <v>       0.09737000       0.00347000       0.00087000 </v>
   <v>       0.97152000       0.07671000       0.01922000 </v>
  </varray>
 </structure>
 <calculation>
  <scstep>
   <time name="dav">    4.01    4.02</time>
   <time name="total">    5.21    5.23</time>
   <dipole>
    <v name="dipole">      0.00000000       0.00000000       0.00001299 </v>
    <i name="Tr[quadrupol]">     -1.03044136 </i>
    <i name="Echarged">      0.00000000 </i>
    <i name="Edipol_quadrupol">      0.00000000 </i>
    <i name="Eion">      0.00000000 </i>
   </dipole>
   <energy>
    <i name="alphaZ">      0.12513084 </i>
    <i name="ewald">     80.86662173 </i>
    <i name="hartreedc">   -442.06058198 </i>
    <i name="XCdc">     32.92075976 </i>
    <i name="pawpsdc">    349.99468356 </i>
    <i name="pawaedc">   -351.80531939 </i>
    <i name="eentropy">     -0.00016154 </i>
    <i name="bandstr">    -53.29700082 </i>
    <i name="atom">    457.32929435 </i>
    <i name="e_fr_energy">     74.07342651 </i>
    <i name="e_wo_entrp">     74.07358805 </i>
    <i name="e_0_energy">     74.07348036 </i>
   </energy>
  </scstep>
  <scstep>
   <time name="dav">    7.12    7.13</time>
   <time name="total">    7.12    7.13</time>
   <dipole>
    <v name="dipole">      0.00000000       0.00000000       0.00001299 </v>
    <i name="Tr[quadrupol]">     -1.03044136 </i>
    <i name="Echarged">      0.00000000 </i>
    <i name="Edipol_quadrupol">      0.00000000 </i>
    <i name="Eion">      0.00000000 </i>
   </dipole>
   <energy>
    <i name="e_fr_energy">      9.23012040 </i>
    <i name="e_wo_entrp">      9.23276667 </i>
    <i name="e_0_energy">      9.23100249 </i>
   </energy>
  </scstep>
  <scstep>
   <time name="dav">    5.68    5.68</time>
   <time name="total">    5.68    5.70</time>
   <dipole>
    <v name="dipole">      0.00000000       0.00000000       0.00001299 </v>
    <i name="Tr[quadrupol]">     -1.03044136 </i>
    <i name="Echarged">      0.00000000 </i>
    <i name="Edipol_quadrupol">      0.00000000 </i>
    <i name="Eion">      0.00000000 </i>
   </dipole>
   <energy>
    <i name="e_fr_energy">    -11.86700914 </i>
    <i name="e_wo_entrp">    -11.86824943 </i>
    <i name="e_0_energy">    -11.86742257 </i>
   </energy>
  </scstep>
  <scstep>
   <time name="dav">    5.88    5.89</time>
   <time name="total">    5.89    5.90</time>
   <dipole>
    <v name="dipole">      0.00000000       0.00000000       0.00001299 </v>
    <i name="Tr[quadrupol]">     -1.03044136 </i>
    <i name="Echarged">      0.00000000 </i>
    <i name="Edipol_quadrupol">      0.00000000 </i>
    <i name="Eion">      0.00000000 </i>
   </dipole>
   <energy>
    <i name="e_fr_energy">    -12.88676881 </i>
    <i name="e_wo_entrp">    -12.88966897 </i>
    <i name="e_0_energy">    -12.88773553 </i>
   </energy>
  </scstep>
  <scstep>
   <time name="dav">    5.67    5.71</time>
   <time name="total">    5.99    6.03</time>
   <dipole>
    <v name="dipole">      0.00000000       0.00000000       0.00001299 </v>
    <i name="Tr[quadrupol]">     -1.03044136 </i>
    <i name="Echarged">      0.00000000 </i>
    <i name="Edipol_quadrupol">      0.00000000 </i>
    <i name="Eion">      0.00000000 </i>
   </dipole>
   <energy>
    <i name="e_fr_energy">    -12.89424830 </i>
    <i name="e_wo_entrp">    -12.89714725 </i>
    <i name="e_0_energy">    -12.89521462 </i>
   </energy>
  </scstep>
  <scstep>
   <time name="dav">    5.19    5.24</time>
   <time name="total">    6.89    6.94</time>
   <dipole>
    <v name="dipole">      0.00000000       0.00000000      -0.01491864 </v>
    <i name="Tr[quadrupol]">     -1.04734927 </i>
    <i name="Echarged">      0.00000000 </i>
    <i name="Edipol_quadrupol">      0.00000000 </i>
    <i name="Eion">      0.00000000 </i>
   </dipole>
   <energy>
    <i name="e_fr_energy">     -4.24268108 </i>
    <i name="e_wo_entrp">     -4.24558034 </i>
    <i name="e_0_energy">     -4.24364750 </i>
   </energy>
  </scstep>
  <scstep>
   <time name="dav">    5.41    5.41</time>
   <time name="total">    7.10    7.10</time>
   <dipole>
    <v name="dipole">      0.00000000       0.00000000      -0.02123584 </v>
    <i name="Tr[quadrupol]">     -1.06085802 </i>
    <i name="Echarged">      0.00000000 </i>
    <i name="Edipol_quadrupol">      0.00000000 </i>
    <i name="Eion">      0.00000000 </i>
   </dipole>
   <energy>
    <i name="e_fr_energy">    -10.77189297 </i>
    <i name="e_wo_entrp">    -10.77772693 </i>
    <i name="e_0_energy">    -10.77383762 </i>
   </energy>
  </scstep>
  <scstep>
   <time name="dav">    5.50    5.50</time>
   <time name="total">    7.18    7.18</time>
   <dipole>
    <v name="dipole">      0.00000000       0.00000000      -0.02586721 </v>
    <i name="Tr[quadrupol]">     -1.06792548 </i>
    <i name="Echarged">      0.00000000 </i>
    <i name="Edipol_quadrupol">      0.00000000 </i>
    <i name="Eion">      0.00000000 </i>
   </dipole>
   <energy>
    <i name="e_fr_energy">    -11.67059205 </i>
    <i name="e_wo_entrp">    -11.67377910 </i>
    <i name="e_0_energy">    -11.67165440 </i>
   </energy>
  </scstep>
  <scstep>
   <time name="dav">    5.32    5.34</time>
   <time name="total">    7.00    7.02</time>
   <dipole>
    <v name="dipole">      0.00000000       0.00000000      -0.03558057 </v>
    <i name="Tr[quadrupol]">     -1.08200168 </i>
    <i name="Echarged">      0.00000000 </i>
    <i name="Edipol_quadrupol">      0.00000000 </i>
    <i name="Eion">      0.00000000 </i>
   </dipole>
   <energy>
    <i name="e_fr_energy">    -13.12491180 </i>
    <i name="e_wo_entrp">    -13.13076609 </i>
    <i name="e_0_energy">    -13.12686323 </i>
   </energy>
  </scstep>
  <scstep>
   <time name="dav">    7.02    7.04</time>
   <time name="total">    8.71    8.74</time>
   <dipole>
    <v name="dipole">      0.00000000       0.00000000      -0.03978842 </v>
    <i name="Tr[quadrupol]">     -1.08613100 </i>
    <i name="Echarged">      0.00000000 </i>
    <i name="Edipol_quadrupol">      0.00000000 </i>
    <i name="Eion">      0.00000000 </i>
   </dipole>
   <energy>
    <i name="e_fr_energy">    -13.35136805 </i>
    <i name="e_wo_entrp">    -13.35780044 </i>
    <i name="e_0_energy">    -13.35351218 </i>
   </energy>
  </scstep>
  <scstep>
   <time name="dav">    5.27    5.28</time>
   <time name="total">    6.98    7.00</time>
   <dipole>
    <v name="dipole">      0.00000000       0.00000000      -0.04220429 </v>
    <i name="Tr[quadrupol]">     -1.09477902 </i>
    <i name="Echarged">      0.00000000 </i>
    <i name="Edipol_quadrupol">      0.00000000 </i>
    <i name="Eion">      0.00000000 </i>
   </dipole>
   <energy>
    <i name="e_fr_energy">    -13.51311357 </i>
    <i name="e_wo_entrp">    -13.51642706 </i>
    <i name="e_0_energy">    -13.51421807 </i>
   </energy>
  </scstep>
  <scstep>
   <time name="dav">    5.33    5.34</time>
   <time name="total">    7.06    7.07</time>
   <dipole>
    <v name="dipole">      0.00000000       0.00000000      -0.04857952 </v>
    <i name="Tr[quadrupol]">     -1.11647932 </i>
    <i name="Echarged">      0.00000000 </i>
    <i name="Edipol_quadrupol">      0.00000000 </i>
    <i name="Eion">      0.00000000 </i>
   </dipole>
   <energy>
    <i name="e_fr_energy">    -13.87211581 </i>
    <i name="e_wo_entrp">    -13.87587093 </i>
    <i name="e_0_energy">    -13.87336752 </i>
   </energy>
  </scstep>
  <scstep>
   <time name="dav">    6.03    6.03</time>
   <time name="total">    7.73    7.74</time>
   <dipole>
    <v name="dipole">      0.00000000       0.00000000      -0.05680109 </v>
    <i name="Tr[quadrupol]">     -1.14509271 </i>
    <i name="Echarged">      0.00000000 </i>
    <i name="Edipol_quadrupol">      0.00000000 </i>
    <i name="Eion">      0.00000000 </i>
   </dipole>
   <energy>
    <i name="e_fr_energy">    -14.13745903 </i>
    <i name="e_wo_entrp">    -14.14265026 </i>
    <i name="e_0_energy">    -14.13918944 </i>
   </energy>
  </scstep>
  <scstep>
   <time name="dav">    5.58    5.59</time>
   <time name="total">    7.30    7.31</time>
   <dipole>
    <v name="dipole">      0.00000000       0.00000000      -0.06333039 </v>
    <i name="Tr[quadrupol]">     -1.16454583 </i>
    <i name="Echarged">      0.00000000 </i>
    <i name="Edipol_quadrupol">      0.00000000 </i>
    <i name="Eion">      0.00000000 </i>
   </dipole>
   <energy>
    <i name="e_fr_energy">    -14.18272393 </i>
    <i name="e_wo_entrp">    -14.18844338 </i>
    <i name="e_0_energy">    -14.18463041 </i>
   </energy>
  </scstep>
  <scstep>
   <time name="dav">    6.57    6.58</time>
   <time name="total">    8.26    8.28</time>
   <dipole>
    <v name="dipole">      0.00000000       0.00000000      -0.06830282 </v>
    <i name="Tr[quadrupol]">     -1.17097029 </i>
    <i name="Echarged">      0.00000000 </i>
    <i name="Edipol_quadrupol">      0.00000000 </i>
    <i name="Eion">      0.00000000 </i>
   </dipole>
   <energy>
    <i name="e_fr_energy">    -14.18957092 </i>
    <i name="e_wo_entrp">    -14.19410936 </i>
    <i name="e_0_energy">    -14.19108374 </i>
   </energy>
  </scstep>
  <scstep>
   <time name="dav">    5.24    5.25</time>
   <time name="total">    6.95    6.97</time>
   <dipole>
    <v name="dipole">      0.00000000       0.00000000      -0.07487008 </v>
    <i name="Tr[quadrupol]">     -1.17904835 </i>
    <i name="Echarged">      0.00000000 </i>
    <i name="Edipol_quadrupol">      0.00000000 </i>
    <i name="Eion">      0.00000000 </i>
   </dipole>
   <energy>
    <i name="e_fr_energy">    -14.19186092 </i>
    <i name="e_wo_entrp">    -14.19730144 </i>
    <i name="e_0_energy">    -14.19367443 </i>
   </energy>
  </scstep>
  <scstep>
   <time name="dav">    5.18    5.19</time>
   <time name="total">    6.93    6.94</time>
   <dipole>
    <v name="dipole">      0.00000000       0.00000000      -0.07973259 </v>
    <i name="Tr[quadrupol]">     -1.18416357 </i>
    <i name="Echarged">      0.00000000 </i>
    <i name="Edipol_quadrupol">      0.00000000 </i>
    <i name="Eion">      0.00000000 </i>
   </dipole>
   <energy>
    <i name="e_fr_energy">    -14.19283896 </i>
    <i name="e_wo_entrp">    -14.19761194 </i>
    <i name="e_0_energy">    -14.19442995 </i>
   </energy>
  </scstep>
  <scstep>
   <time name="dav">    5.23    5.24</time>
   <time name="total">    6.95    6.97</time>
   <dipole>
    <v name="dipole">      0.00000000       0.00000000      -0.08502110 </v>
    <i name="Tr[quadrupol]">     -1.17364028 </i>
    <i name="Echarged">      0.00000000 </i>
    <i name="Edipol_quadrupol">      0.00000000 </i>
    <i name="Eion">      0.00000000 </i>
   </dipole>
   <energy>
    <i name="e_fr_energy">    -14.19677788 </i>
    <i name="e_wo_entrp">    -14.20209899 </i>
    <i name="e_0_energy">    -14.19855158 </i>
   </energy>
  </scstep>
  <scstep>
   <time name="dav">    5.26    5.27</time>
   <time name="total">    7.02    7.04</time>
   <dipole>
    <v name="dipole">      0.00000000       0.00000000      -0.08767742 </v>
    <i name="Tr[quadrupol]">     -1.17478058 </i>
    <i name="Echarged">      0.00000000 </i>
    <i name="Edipol_quadrupol">      0.00000000 </i>
    <i name="Eion">      0.00000000 </i>
   </dipole>
   <energy>
    <i name="e_fr_energy">    -14.19858419 </i>
    <i name="e_wo_entrp">    -14.20376584 </i>
    <i name="e_0_energy">    -14.20031140 </i>
   </energy>
  </scstep>
  <scstep>
   <time name="dav">    5.18    5.18</time>
   <time name="total">    6.91    6.92</time>
   <dipole>
    <v name="dipole">      0.00000000       0.00000000      -0.09001504 </v>
    <i name="Tr[quadrupol]">     -1.17524851 </i>
    <i name="Echarged">      0.00000000 </i>
    <i name="Edipol_quadrupol">      0.00000000 </i>
    <i name="Eion">      0.00000000 </i>
   </dipole>
   <energy>
    <i name="e_fr_energy">    -14.19931241 </i>
    <i name="e_wo_entrp">    -14.20437229 </i>
    <i name="e_0_energy">    -14.20099904 </i>
   </energy>
  </scstep>
  <scstep>
   <time name="dav">    5.06    5.07</time>
   <time name="total">    6.76    6.78</time>
   <dipole>
    <v name="dipole">      0.00000000       0.00000000      -0.09149432 </v>
    <i name="Tr[quadrupol]">     -1.32263456 </i>
    <i name="Echarged">      0.00000000 </i>
    <i name="Edipol_quadrupol">      0.00000000 </i>
    <i name="Eion">      0.00000000 </i>
   </dipole>
   <energy>
    <i name="e_fr_energy">    -14.19935382 </i>
    <i name="e_wo_entrp">    -14.20447235 </i>
    <i name="e_0_energy">    -14.20105999 </i>
   </energy>
  </scstep>
  <scstep>
   <time name="dav">    5.98    6.19</time>
   <time name="total">    7.62    7.84</time>
   <dipole>
    <v name="dipole">      0.00000000       0.00000000      -0.09236487 </v>
    <i name="Tr[quadrupol]">     -1.38958205 </i>
    <i name="Echarged">      0.00000000 </i>
    <i name="Edipol_quadrupol">      0.00000000 </i>
    <i name="Eion">      0.00000000 </i>
   </dipole>
   <energy>
    <i name="e_fr_energy">    -14.19937380 </i>
    <i name="e_wo_entrp">    -14.20448446 </i>
    <i name="e_0_energy">    -14.20107736 </i>
   </energy>
  </scstep>
  <scstep>
   <time name="dav">    4.48    4.48</time>
   <time name="total">    6.15    6.15</time>
   <dipole>
    <v name="dipole">      0.00000000       0.00000000      -0.09291390 </v>
    <i name="Tr[quadrupol]">     -1.42368629 </i>
    <i name="Echarged">      0.00000000 </i>
    <i name="Edipol_quadrupol">      0.00000000 </i>
    <i name="Eion">      0.00000000 </i>
   </dipole>
   <energy>
    <i name="e_fr_energy">    -14.19951353 </i>
    <i name="e_wo_entrp">    -14.20464689 </i>
    <i name="e_0_energy">    -14.20122465 </i>
   </energy>
  </scstep>
  <scstep>
   <time name="dav">    4.17    4.18</time>
   <time name="total">    5.73    5.73</time>
   <dipole>
    <v name="dipole">      0.00000000       0.00000000      -0.09322068 </v>
    <i name="Tr[quadrupol]">     -1.42414122 </i>
    <i name="Echarged">      0.00000000 </i>
    <i name="Edipol_quadrupol">      0.00000000 </i>
    <i name="Eion">      0.00000000 </i>
   </dipole>
   <energy>
    <i name="e_fr_energy">    -14.19959766 </i>
    <i name="e_wo_entrp">    -14.20472966 </i>
    <i name="e_0_energy">    -14.20130833 </i>
   </energy>
  </scstep>
  <scstep>
   <time name="dav">    4.22    4.22</time>
   <time name="total">    5.77    5.78</time>
   <dipole>
    <v name="dipole">      0.00000000       0.00000000      -0.09335763 </v>
    <i name="Tr[quadrupol]">     -1.40755132 </i>
    <i name="Echarged">      0.00000000 </i>
    <i name="Edipol_quadrupol">      0.00000000 </i>
    <i name="Eion">      0.00000000 </i>
   </dipole>
   <energy>
    <i name="e_fr_energy">    -14.19961390 </i>
    <i name="e_wo_entrp">    -14.20473176 </i>
    <i name="e_0_energy">    -14.20131985 </i>
   </energy>
  </scstep>
  <scstep>
   <time name="dav">    4.06    4.07</time>
   <time name="total">    5.62    5.63</time>
   <dipole>
    <v name="dipole">      0.00000000       0.00000000      -0.09346725 </v>
    <i name="Tr[quadrupol]">     -1.39083938 </i>
    <i name="Echarged">      0.00000000 </i>
    <i name="Edipol_quadrupol">      0.00000000 </i>
    <i name="Eion">      0.00000000 </i>
   </dipole>
   <energy>
    <i name="e_fr_energy">    -14.19961755 </i>
    <i name="e_wo_entrp">    -14.20473989 </i>
    <i name="e_0_energy">    -14.20132499 </i>
   </energy>
  </scstep>
  <scstep>
   <time name="dav">    4.16    4.16</time>
   <time name="total">    5.71    5.71</time>
   <dipole>
    <v name="dipole">      0.00000000       0.00000000      -0.09354766 </v>
    <i name="Tr[quadrupol]">     -1.29057719 </i>
    <i name="Echarged">      0.00000000 </i>
    <i name="Edipol_quadrupol">      0.00000000 </i>
    <i name="Eion">      0.00000000 </i>
   </dipole>
   <energy>
    <i name="e_fr_energy">    -14.19962026 </i>
    <i name="e_wo_entrp">    -14.20474502 </i>
    <i name="e_0_energy">    -14.20132851 </i>
   </energy>
  </scstep>
  <scstep>
   <time name="dav">    3.88    3.88</time>
   <time name="total">    5.45    5.46</time>
   <dipole>
    <v name="dipole">      0.00000000       0.00000000      -0.09357330 </v>
    <i name="Tr[quadrupol]">     -1.24037431 </i>
    <i name="Echarged">      0.00000000 </i>
    <i name="Edipol_quadrupol">      0.00000000 </i>
    <i name="Eion">      0.00000000 </i>
   </dipole>
   <energy>
    <i name="e_fr_energy">    -14.19962322 </i>
    <i name="e_wo_entrp">    -14.20474649 </i>
    <i name="e_0_energy">    -14.20133097 </i>
   </energy>
  </scstep>
  <scstep>
   <time name="dav">    4.09    4.09</time>
   <time name="total">    5.60    5.61</time>
   <dipole>
    <v name="dipole">      0.00000000       0.00000000      -0.09356795 </v>
    <i name="Tr[quadrupol]">     -1.22361428 </i>
    <i name="Echarged">      0.00000000 </i>
    <i name="Edipol_quadrupol">      0.00000000 </i>
    <i name="Eion">      0.00000000 </i>
   </dipole>
   <energy>
    <i name="e_fr_energy">    -14.19962491 </i>
    <i name="e_wo_entrp">    -14.20474648 </i>
    <i name="e_0_energy">    -14.20133210 </i>
   </energy>
  </scstep>
  <scstep>
   <time name="dav">    4.40    4.40</time>
   <time name="total">    5.60    5.61</time>
   <dipole>
    <v name="dipole">      0.00000000       0.00000000      -0.09356582 </v>
    <i name="Tr[quadrupol]">     -1.20689581 </i>
    <i name="Echarged">      0.00000000 </i>
    <i name="Edipol_quadrupol">      0.00000000 </i>
    <i name="Eion">      0.00000000 </i>
   </dipole>
   <energy>
    <i name="alphaZ">      0.12756448 </i>
    <i name="ewald">     80.86662173 </i>
    <i name="hartreedc">   -475.81452065 </i>
    <i name="XCdc">     33.88942242 </i>
    <i name="pawpsdc">    534.44371839 </i>
    <i name="pawaedc">   -536.51831478 </i>
    <i name="eentropy">      0.00512312 </i>
    <i name="bandstr">   -108.52853459 </i>
    <i name="atom">    457.32929435 </i>
    <i name="e_fr_energy">    -14.19962553 </i>
    <i name="e_wo_entrp">    -14.20474865 </i>
    <i name="e_0_energy">    -14.20133324 </i>
   </energy>
  </scstep>
  <structure>
   <crystal>
    <varray name="basis" >
     <v>      10.16000000       0.00000000       0.00000000 </v>
     <v>       0.00000000      11.76000000       0.00000000 </v>
     <v>       0.00000000       0.00000000      15.00000000 </v>
    </varray>
    <i name="volume">   1792.22400000 </i>
    <varray name="rec_basis" >
     <v>       0.09842520       0.00000000       0.00000000 </v>
     <v>       0.00000000       0.08503401       0.00000000 </v>
     <v>       0.00000000       0.00000000       0.06666667 </v>
    </varray>
   </crystal>
   <varray name="positions" >
    <v>       0.00000000       0.00000000       0.00000000 </v>
    <v>       0.09737000       0.00347000       0.00087000 </v>
    <v>       0.97152000       0.07671000       0.01922000 </v>
   </varray>
  </structure>
  <varray name="forces" >
   <v>       0.52490780       0.71780644       0.23597026 </v>
   <v>      -0.83165887       0.02476404       0.00453427 </v>
   <v>       0.30675107      -0.74257048      -0.24050453 </v>
  </varray>
  <varray name="stress" >
   <v>      -0.82384226       0.21204514       0.06739414 </v>
   <v>       0.21204514      -0.63729628      -0.18750338 </v>
   <v>       0.06739414      -0.18750338      -0.06290911 </v>
  </varray>
  <energy>
   <i name="e_fr_energy">    -14.19962553 </i>
   <i name="e_wo_entrp">    -14.20133324 </i>
   <i name="e_0_energy">      0.00512312 </i>
  </energy>
  <time name="totalsc">  206.71  207.40</time>
 </calculation>
 <calculation>
  <scstep>
   <time name="dav">    3.90    3.91</time>
   <time name="total">    5.31    5.31</time>
   <dipole>
    <v name="dipole">      0.00000000       0.00000000      -0.09356153 </v>
    <i name="Tr[quadrupol]">     -1.06855560 </i>
    <i name="Echarged">      0.00000000 </i>
    <i name="Edipol_quadrupol">      0.00000000 </i>
    <i name="Eion">      0.00000000 </i>
   </dipole>
   <energy>
    <i name="alphaZ">      0.12810990 </i>
    <i name="ewald">     93.85934835 </i>
    <i name="hartreedc">   -481.81603259 </i>
    <i name="XCdc">     34.16894172 </i>
    <i name="pawpsdc">    534.44418380 </i>
    <i name="pawaedc">   -536.51878017 </i>
    <i name="eentropy">      0.00511129 </i>
    <i name="bandstr">   -115.70992379 </i>
    <i name="atom">    457.32929435 </i>
    <i name="e_fr_energy">    -14.10974715 </i>
    <i name="e_wo_entrp">    -14.11485844 </i>
    <i name="e_0_energy">    -14.11145091 </i>
   </energy>
  </scstep>
  <scstep>
   <time name="dav">    4.56    4.57</time>
   <time name="total">    6.07    6.09</time>
   <dipole>
    <v name="dipole">      0.00000000       0.00000000      -0.09367069 </v>
    <i name="Tr[quadrupol]">     -1.03951626 </i>
    <i name="Echarged">      0.00000000 </i>
    <i name="Edipol_quadrupol">      0.00000000 </i>
    <i name="Eion">      0.00000000 </i>
   </dipole>
   <energy>
    <i name="e_fr_energy">    -14.08910675 </i>
    <i name="e_wo_entrp">    -14.09420926 </i>
    <i name="e_0_energy">    -14.09080759 </i>
   </energy>
  </scstep>
  <scstep>
   <time name="dav">    4.38    4.39</time>
   <time name="total">    5.78    5.80</time>
   <dipole>
    <v name="dipole">      0.00000000       0.00000000      -0.09308119 </v>
    <i name="Tr[quadrupol]">     -1.07722188 </i>
    <i name="Echarged">      0.00000000 </i>
    <i name="Edipol_quadrupol">      0.00000000 </i>
    <i name="Eion">      0.00000000 </i>
   </dipole>
   <energy>
    <i name="e_fr_energy">    -14.08489961 </i>
    <i name="e_wo_entrp">    -14.09009086 </i>
    <i name="e_0_energy">    -14.08663002 </i>
   </energy>
  </scstep>
  <scstep>
   <time name="dav">    4.25    4.26</time>
   <time name="total">    5.67    5.68</time>
   <dipole>
    <v name="dipole">      0.00000000       0.00000000      -0.09244581 </v>
    <i name="Tr[quadrupol]">     -1.09559414 </i>
    <i name="Echarged">      0.00000000 </i>
    <i name="Edipol_quadrupol">      0.00000000 </i>
    <i name="Eion">      0.00000000 </i>
   </dipole>
   <energy>
    <i name="e_fr_energy">    -14.08446811 </i>
    <i name="e_wo_entrp">    -14.08921575 </i>
    <i name="e_0_energy">    -14.08605066 </i>
   </energy>
  </scstep>
  <scstep>
   <time name="dav">    4.26    4.26</time>
   <time name="total">    5.68    5.68</time>
   <dipole>
    <v name="dipole">      0.00000000       0.00000000      -0.09212155 </v>
    <i name="Tr[quadrupol]">     -1.11368460 </i>
    <i name="Echarged">      0.00000000 </i>
    <i name="Edipol_quadrupol">      0.00000000 </i>
    <i name="Eion">      0.00000000 </i>
   </dipole>
   <energy>
    <i name="e_fr_energy">    -14.08439297 </i>
    <i name="e_wo_entrp">    -14.09038233 </i>
    <i name="e_0_energy">    -14.08638943 </i>
   </energy>
  </scstep>
  <scstep>
   <time name="dav">    4.09    4.10</time>
   <time name="total">    5.50    5.51</time>
   <dipole>
    <v name="dipole">      0.00000000       0.00000000      -0.09199801 </v>
    <i name="Tr[quadrupol]">     -1.11449091 </i>
    <i name="Echarged">      0.00000000 </i>
    <i name="Edipol_quadrupol">      0.00000000 </i>
    <i name="Eion">      0.00000000 </i>
   </dipole>
   <energy>
    <i name="e_fr_energy">    -14.08453758 </i>
    <i name="e_wo_entrp">    -14.08961767 </i>
    <i name="e_0_energy">    -14.08623095 </i>
   </energy>
  </scstep>
  <scstep>
   <time name="dav">    4.27    4.27</time>
   <time name="total">    5.67    5.68</time>
   <dipole>
    <v name="dipole">      0.00000000       0.00000000      -0.09174535 </v>
    <i name="Tr[quadrupol]">     -1.11627518 </i>
    <i name="Echarged">      0.00000000 </i>
    <i name="Edipol_quadrupol">      0.00000000 </i>
    <i name="Eion">      0.00000000 </i>
   </dipole>
   <energy>
    <i name="e_fr_energy">    -14.08474616 </i>
    <i name="e_wo_entrp">    -14.08986816 </i>
    <i name="e_0_energy">    -14.08645350 </i>
   </energy>
  </scstep>
  <scstep>
   <time name="dav">    4.58    4.59</time>
   <time name="total">    6.00    6.01</time>
   <dipole>
    <v name="dipole">      0.00000000       0.00000000      -0.09151787 </v>
    <i name="Tr[quadrupol]">     -1.11778087 </i>
    <i name="Echarged">      0.00000000 </i>
    <i name="Edipol_quadrupol">      0.00000000 </i>
    <i name="Eion">      0.00000000 </i>
   </dipole>
   <energy>
    <i name="e_fr_energy">    -14.08479582 </i>
    <i name="e_wo_entrp">    -14.08993076 </i>
    <i name="e_0_energy">    -14.08650746 </i>
   </energy>
  </scstep>
  <scstep>
   <time name="dav">    4.40    4.41</time>
   <time name="total">    5.82    5.83</time>
   <dipole>
    <v name="dipole">      0.00000000       0.00000000      -0.09126097 </v>
    <i name="Tr[quadrupol]">     -1.11942617 </i>
    <i name="Echarged">      0.00000000 </i>
    <i name="Edipol_quadrupol">      0.00000000 </i>
    <i name="Eion">      0.00000000 </i>
   </dipole>
   <energy>
    <i name="e_fr_energy">    -14.08484644 </i>
    <i name="e_wo_entrp">    -14.08996384 </i>
    <i name="e_0_energy">    -14.08655224 </i>
   </energy>
  </scstep>
  <scstep>
   <time name="dav">    4.38    4.39</time>
   <time name="total">    5.82    5.84</time>
   <dipole>
    <v name="dipole">      0.00000000       0.00000000      -0.09093368 </v>
    <i name="Tr[quadrupol]">     -1.12154346 </i>
    <i name="Echarged">      0.00000000 </i>
    <i name="Edipol_quadrupol">      0.00000000 </i>
    <i name="Eion">      0.00000000 </i>
   </dipole>
   <energy>
    <i name="e_fr_energy">    -14.08490328 </i>
    <i name="e_wo_entrp">    -14.09002593 </i>
    <i name="e_0_energy">    -14.08661083 </i>
   </energy>
  </scstep>
  <scstep>
   <time name="dav">    4.33    4.34</time>
   <time name="total">    5.74    5.75</time>
   <dipole>
    <v name="dipole">      0.00000000       0.00000000      -0.09047183 </v>
    <i name="Tr[quadrupol]">     -1.12446192 </i>
    <i name="Echarged">      0.00000000 </i>
    <i name="Edipol_quadrupol">      0.00000000 </i>
    <i name="Eion">      0.00000000 </i>
   </dipole>
   <energy>
    <i name="e_fr_energy">    -14.08495853 </i>
    <i name="e_wo_entrp">    -14.09008396 </i>
    <i name="e_0_energy">    -14.08666701 </i>
   </energy>
  </scstep>
  <scstep>
   <time name="dav">    4.75    4.76</time>
   <time name="total">    6.18    6.20</time>
   <dipole>
    <v name="dipole">      0.00000000       0.00000000      -0.09018616 </v>
    <i name="Tr[quadrupol]">     -1.12608603 </i>
    <i name="Echarged">      0.00000000 </i>
    <i name="Edipol_quadrupol">      0.00000000 </i>
    <i name="Eion">      0.00000000 </i>
   </dipole>
   <energy>
    <i name="e_fr_energy">    -14.08498266 </i>
    <i name="e_wo_entrp">    -14.09010566 </i>
    <i name="e_0_energy">    -14.08669032 </i>
   </energy>
  </scstep>
  <scstep>
   <time name="dav">    3.36    3.36</time>
   <time name="total">    4.70    4.70</time>
   <dipole>
    <v name="dipole">      0.00000000       0.00000000      -0.08993842 </v>
    <i name="Tr[quadrupol]">     -1.12737158 </i>
    <i name="Echarged">      0.00000000 </i>
    <i name="Edipol_quadrupol">      0.00000000 </i>
    <i name="Eion">      0.00000000 </i>
   </dipole>
   <energy>
    <i name="e_fr_energy">    -14.08499762 </i>
    <i name="e_wo_entrp">    -14.09012069 </i>
    <i name="e_0_energy">    -14.08670531 </i>
   </energy>
  </scstep>
  <scstep>
   <time name="dav">    3.35    3.35</time>
   <time name="total">    4.57    4.58</time>
   <dipole>
    <v name="dipole">      0.00000000       0.00000000      -0.08975006 </v>
    <i name="Tr[quadrupol]">     -1.12822702 </i>
    <i name="Echarged">      0.00000000 </i>
    <i name="Edipol_quadrupol">      0.00000000 </i>
    <i name="Eion">      0.00000000 </i>
   </dipole>
   <energy>
    <i name="e_fr_energy">    -14.08500519 </i>
    <i name="e_wo_entrp">    -14.09012857 </i>
    <i name="e_0_energy">    -14.08671298 </i>
   </energy>
  </scstep>
  <scstep>
   <time name="dav">    3.55    3.55</time>
   <time name="total">    4.80    4.80</time>
   <dipole>
    <v name="dipole">      0.00000000       0.00000000      -0.08959937 </v>
    <i name="Tr[quadrupol]">     -1.12882240 </i>
    <i name="Echarged">      0.00000000 </i>
    <i name="Edipol_quadrupol">      0.00000000 </i>
    <i name="Eion">      0.00000000 </i>
   </dipole>
   <energy>
    <i name="e_fr_energy">    -14.08500960 </i>
    <i name="e_wo_entrp">    -14.09013268 </i>
    <i name="e_0_energy">    -14.08671730 </i>
   </energy>
  </scstep>
  <scstep>
   <time name="dav">    3.51    3.51</time>
   <time name="total">    4.72    4.72</time>
   <dipole>
    <v name="dipole">      0.00000000       0.00000000      -0.08948239 </v>
    <i name="Tr[quadrupol]">     -1.11323777 </i>
    <i name="Echarged">      0.00000000 </i>
    <i name="Edipol_quadrupol">      0.00000000 </i>
    <i name="Eion">      0.00000000 </i>
   </dipole>
   <energy>
    <i name="e_fr_energy">    -14.08501170 </i>
    <i name="e_wo_entrp">    -14.09013503 </i>
    <i name="e_0_energy">    -14.08671948 </i>
   </energy>
  </scstep>
  <scstep>
   <time name="dav">    3.56    3.56</time>
   <time name="total">    4.80    4.80</time>
   <dipole>
    <v name="dipole">      0.00000000       0.00000000      -0.08941817 </v>
    <i name="Tr[quadrupol]">     -1.11346401 </i>
    <i name="Echarged">      0.00000000 </i>
    <i name="Edipol_quadrupol">      0.00000000 </i>
    <i name="Eion">      0.00000000 </i>
   </dipole>
   <energy>
    <i name="e_fr_energy">    -14.08501291 </i>
    <i name="e_wo_entrp">    -14.09013646 </i>
    <i name="e_0_energy">    -14.08672076 </i>
   </energy>
  </scstep>
  <scstep>
   <time name="dav">    3.13    3.13</time>
   <time name="total">    4.13    4.13</time>
   <dipole>
    <v name="dipole">      0.00000000       0.00000000      -0.08938294 </v>
    <i name="Tr[quadrupol]">     -1.11357832 </i>
    <i name="Echarged">      0.00000000 </i>
    <i name="Edipol_quadrupol">      0.00000000 </i>
    <i name="Eion">      0.00000000 </i>
   </dipole>
   <energy>
    <i name="alphaZ">      0.13453570 </i>
    <i name="ewald">     93.85934835 </i>
    <i name="hartreedc">   -485.97622237 </i>
    <i name="XCdc">     34.40656120 </i>
    <i name="pawpsdc">    579.11491175 </i>
    <i name="pawaedc">   -581.29780616 </i>
    <i name="eentropy">      0.00512334 </i>
    <i name="bandstr">   -111.66075968 </i>
    <i name="atom">    457.32929435 </i>
    <i name="e_fr_energy">    -14.08501353 </i>
    <i name="e_wo_entrp">    -14.09013687 </i>
    <i name="e_0_energy">    -14.08672131 </i>
   </energy>
  </scstep>
  <structure>
   <crystal>
    <varray name="basis" >
     <v>      10.16000000       0.00000000       0.00000000 </v>
     <v>       0.00000000      11.76000000       0.00000000 </v>
     <v>       0.00000000       0.00000000      15.00000000 </v>
    </varray>
    <i name="volume">   1792.22400000 </i>
    <varray name="rec_basis" >
     <v>       0.09842520       0.00000000       0.00000000 </v>
     <v>       0.00000000       0.08503401       0.00000000 </v>
     <v>       0.00000000       0.00000000       0.06666667 </v>
    </varray>
   </crystal>
   <varray name="positions" >
    <v>       0.00249242       0.00294463       0.00075892 </v>
    <v>       0.09342104       0.00357159       0.00088458 </v>
    <v>       0.97297654       0.07366378       0.01844649 </v>
   </varray>
  </structure>
  <varray name="forces" >
   <v>      -1.92784600      -2.65997015      -0.83805204 </v>
   <v>       2.70529161       0.13479632       0.03726518 </v>
   <v>      -0.77744561       2.52517383       0.80078686 </v>
  </varray>
  <varray name="stress" >
   <v>       2.39663201      -0.58913350      -0.18475262 </v>
   <v>      -0.58913350       1.84651580       0.59484309 </v>
   <v>      -0.18475263       0.59484309       0.13488830 </v>
  </varray>
  <energy>
   <i name="e_fr_energy">    -14.08501353 </i>
   <i name="e_wo_entrp">    -14.08672131 </i>
   <i name="e_0_energy">      0.00512334 </i>
  </energy>
  <time name="totalsc">  102.99  103.16</time>
 </calculation>
 <calculation>
  <scstep>
   <time name="dav">    3.14    3.14</time>
   <time name="total">    4.30    4.30</time>
   <dipole>
    <v name="dipole">      0.00000000       0.00000000      -0.08936234 </v>
    <i name="Tr[quadrupol]">     -1.21237459 </i>
    <i name="Echarged">      0.00000000 </i>
    <i name="Edipol_quadrupol">      0.00000000 </i>
    <i name="Eion">      0.00000000 </i>
   </dipole>
   <energy>
    <i name="alphaZ">      0.13415131 </i>
    <i name="ewald">     84.17288775 </i>
    <i name="hartreedc">   -481.43396868 </i>
    <i name="XCdc">     34.19272447 </i>
    <i name="pawpsdc">    579.11509638 </i>
    <i name="pawaedc">   -581.29799535 </i>
    <i name="eentropy">      0.00517415 </i>
    <i name="bandstr">   -106.44851970 </i>
    <i name="atom">    457.32929435 </i>
    <i name="e_fr_energy">    -14.23115532 </i>
    <i name="e_wo_entrp">    -14.23632947 </i>
    <i name="e_0_energy">    -14.23288004 </i>
   </energy>
  </scstep>
  <scstep>
   <time name="dav">    3.60    3.60</time>
   <time name="total">    4.78    4.78</time>
   <dipole>
    <v name="dipole">      0.00000000       0.00000000      -0.08908606 </v>
    <i name="Tr[quadrupol]">     -1.14470836 </i>
    <i name="Echarged">      0.00000000 </i>
    <i name="Edipol_quadrupol">      0.00000000 </i>
    <i name="Eion">      0.00000000 </i>
   </dipole>
   <energy>
    <i name="e_fr_energy">    -14.21629811 </i>
    <i name="e_wo_entrp">    -14.22128921 </i>
    <i name="e_0_energy">    -14.21796181 </i>
   </energy>
  </scstep>
  <scstep>
   <time name="dav">    3.21    3.21</time>
   <time name="total">    4.40    4.40</time>
   <dipole>
    <v name="dipole">      0.00000000       0.00000000      -0.08963591 </v>
    <i name="Tr[quadrupol]">     -1.20642688 </i>
    <i name="Echarged">      0.00000000 </i>
    <i name="Edipol_quadrupol">      0.00000000 </i>
    <i name="Eion">      0.00000000 </i>
   </dipole>
   <energy>
    <i name="e_fr_energy">    -14.21418415 </i>
    <i name="e_wo_entrp">    -14.21975222 </i>
    <i name="e_0_energy">    -14.21604017 </i>
   </energy>
  </scstep>
  <scstep>
   <time name="dav">    3.12    3.12</time>
   <time name="total">    4.32    4.32</time>
   <dipole>
    <v name="dipole">      0.00000000       0.00000000      -0.09018429 </v>
    <i name="Tr[quadrupol]">     -1.23724905 </i>
    <i name="Echarged">      0.00000000 </i>
    <i name="Edipol_quadrupol">      0.00000000 </i>
    <i name="Eion">      0.00000000 </i>
   </dipole>
   <energy>
    <i name="e_fr_energy">    -14.21209372 </i>
    <i name="e_wo_entrp">    -14.21544253 </i>
    <i name="e_0_energy">    -14.21320999 </i>
   </energy>
  </scstep>
  <scstep>
   <time name="dav">    3.08    3.08</time>
   <time name="total">    4.28    4.28</time>
   <dipole>
    <v name="dipole">      0.00000000       0.00000000      -0.09041584 </v>
    <i name="Tr[quadrupol]">     -1.25235397 </i>
    <i name="Echarged">      0.00000000 </i>
    <i name="Edipol_quadrupol">      0.00000000 </i>
    <i name="Eion">      0.00000000 </i>
   </dipole>
   <energy>
    <i name="e_fr_energy">    -14.21376712 </i>
    <i name="e_wo_entrp">    -14.21862046 </i>
    <i name="e_0_energy">    -14.21538490 </i>
   </energy>
  </scstep>
  <scstep>
   <time name="dav">    3.35    3.35</time>
   <time name="total">    4.55    4.56</time>
   <dipole>
    <v name="dipole">      0.00000000       0.00000000      -0.09052147 </v>
    <i name="Tr[quadrupol]">     -1.21900857 </i>
    <i name="Echarged">      0.00000000 </i>
    <i name="Edipol_quadrupol">      0.00000000 </i>
    <i name="Eion">      0.00000000 </i>
   </dipole>
   <energy>
    <i name="e_fr_energy">    -14.21408650 </i>
    <i name="e_wo_entrp">    -14.21932082 </i>
    <i name="e_0_energy">    -14.21583127 </i>
   </energy>
  </scstep>
  <scstep>
   <time name="dav">    3.22    3.22</time>
   <time name="total">    4.41    4.42</time>
   <dipole>
    <v name="dipole">      0.00000000       0.00000000      -0.09073441 </v>
    <i name="Tr[quadrupol]">     -1.20135787 </i>
    <i name="Echarged">      0.00000000 </i>
    <i name="Edipol_quadrupol">      0.00000000 </i>
    <i name="Eion">      0.00000000 </i>
   </dipole>
   <energy>
    <i name="e_fr_energy">    -14.21418008 </i>
    <i name="e_wo_entrp">    -14.21936517 </i>
    <i name="e_0_energy">    -14.21590844 </i>
   </energy>
  </scstep>
  <scstep>
   <time name="dav">    3.07    3.07</time>
   <time name="total">    4.27    4.27</time>
   <dipole>
    <v name="dipole">      0.00000000       0.00000000      -0.09090719 </v>
    <i name="Tr[quadrupol]">     -1.20032699 </i>
    <i name="Echarged">      0.00000000 </i>
    <i name="Edipol_quadrupol">      0.00000000 </i>
    <i name="Eion">      0.00000000 </i>
   </dipole>
   <energy>
    <i name="e_fr_energy">    -14.21421825 </i>
    <i name="e_wo_entrp">    -14.21933025 </i>
    <i name="e_0_energy">    -14.21592225 </i>
   </energy>
  </scstep>
  <scstep>
   <time name="dav">    3.36    3.36</time>
   <time name="total">    4.57    4.57</time>
   <dipole>
    <v name="dipole">      0.00000000       0.00000000      -0.09102239 </v>
    <i name="Tr[quadrupol]">     -1.19960916 </i>
    <i name="Echarged">      0.00000000 </i>
    <i name="Edipol_quadrupol">      0.00000000 </i>
    <i name="Eion">      0.00000000 </i>
   </dipole>
   <energy>
    <i name="e_fr_energy">    -14.21423470 </i>
    <i name="e_wo_entrp">    -14.21936149 </i>
    <i name="e_0_energy">    -14.21594363 </i>
   </energy>
  </scstep>
  <scstep>
   <time name="dav">    3.05    3.05</time>
   <time name="total">    4.24    4.25</time>
   <dipole>
    <v name="dipole">      0.00000000       0.00000000      -0.09134032 </v>
    <i name="Tr[quadrupol]">     -1.19759755 </i>
    <i name="Echarged">      0.00000000 </i>
    <i name="Edipol_quadrupol">      0.00000000 </i>
    <i name="Eion">      0.00000000 </i>
   </dipole>
   <energy>
    <i name="e_fr_energy">    -14.21427038 </i>
    <i name="e_wo_entrp">    -14.21937794 </i>
    <i name="e_0_energy">    -14.21597290 </i>
   </energy>
  </scstep>
  <scstep>
   <time name="dav">    3.27    3.27</time>
   <time name="total">    4.48    4.48</time>
   <dipole>
    <v name="dipole">      0.00000000       0.00000000      -0.09165981 </v>
    <i name="Tr[quadrupol]">     -1.19561911 </i>
    <i name="Echarged">      0.00000000 </i>
    <i name="Edipol_quadrupol">      0.00000000 </i>
    <i name="Eion">      0.00000000 </i>
   </dipole>
   <energy>
    <i name="e_fr_energy">    -14.21429326 </i>
    <i name="e_wo_entrp">    -14.21941264 </i>
    <i name="e_0_energy">    -14.21599972 </i>
   </energy>
  </scstep>
  <scstep>
   <time name="dav">    3.46    3.46</time>
   <time name="total">    4.66    4.67</time>
   <dipole>
    <v name="dipole">      0.00000000       0.00000000      -0.09182868 </v>
    <i name="Tr[quadrupol]">     -1.19464385 </i>
    <i name="Echarged">      0.00000000 </i>
    <i name="Edipol_quadrupol">      0.00000000 </i>
    <i name="Eion">      0.00000000 </i>
   </dipole>
   <energy>
    <i name="e_fr_energy">    -14.21430367 </i>
    <i name="e_wo_entrp">    -14.21943197 </i>
    <i name="e_0_energy">    -14.21601310 </i>
   </energy>
  </scstep>
  <scstep>
   <time name="dav">    3.18    3.18</time>
   <time name="total">    4.40    4.40</time>
   <dipole>
    <v name="dipole">      0.00000000       0.00000000      -0.09208499 </v>
    <i name="Tr[quadrupol]">     -1.19323047 </i>
    <i name="Echarged">      0.00000000 </i>
    <i name="Edipol_quadrupol">      0.00000000 </i>
    <i name="Eion">      0.00000000 </i>
   </dipole>
   <energy>
    <i name="e_fr_energy">    -14.21431507 </i>
    <i name="e_wo_entrp">    -14.21943609 </i>
    <i name="e_0_energy">    -14.21602208 </i>
   </energy>
  </scstep>
  <scstep>
   <time name="dav">    3.73    3.73</time>
   <time name="total">    4.94    4.95</time>
   <dipole>
    <v name="dipole">      0.00000000       0.00000000      -0.09218939 </v>
    <i name="Tr[quadrupol]">     -1.19271919 </i>
    <i name="Echarged">      0.00000000 </i>
    <i name="Edipol_quadrupol">      0.00000000 </i>
    <i name="Eion">      0.00000000 </i>
   </dipole>
   <energy>
    <i name="e_fr_energy">    -14.21431852 </i>
    <i name="e_wo_entrp">    -14.21944275 </i>
    <i name="e_0_energy">    -14.21602660 </i>
   </energy>
  </scstep>
  <scstep>
   <time name="dav">    3.20    3.20</time>
   <time name="total">    4.42    4.43</time>
   <dipole>
    <v name="dipole">      0.00000000       0.00000000      -0.09231493 </v>
    <i name="Tr[quadrupol]">     -1.19215736 </i>
    <i name="Echarged">      0.00000000 </i>
    <i name="Edipol_quadrupol">      0.00000000 </i>
    <i name="Eion">      0.00000000 </i>
   </dipole>
   <energy>
    <i name="e_fr_energy">    -14.21432172 </i>
    <i name="e_wo_entrp">    -14.21944440 </i>
    <i name="e_0_energy">    -14.21602928 </i>
   </energy>
  </scstep>
  <scstep>
   <time name="dav">    3.53    3.53</time>
   <time name="total">    4.76    4.76</time>
   <dipole>
    <v name="dipole">      0.00000000       0.00000000      -0.09241533 </v>
    <i name="Tr[quadrupol]">     -1.19173339 </i>
    <i name="Echarged">      0.00000000 </i>
    <i name="Edipol_quadrupol">      0.00000000 </i>
    <i name="Eion">      0.00000000 </i>
   </dipole>
   <energy>
    <i name="e_fr_energy">    -14.21432334 </i>
    <i name="e_wo_entrp">    -14.21944674 </i>
    <i name="e_0_energy">    -14.21603114 </i>
   </energy>
  </scstep>
  <scstep>
   <time name="dav">    3.65    3.65</time>
   <time name="total">    4.68    4.68</time>
   <dipole>
    <v name="dipole">      0.00000000       0.00000000      -0.09244888 </v>
    <i name="Tr[quadrupol]">     -1.19161048 </i>
    <i name="Echarged">      0.00000000 </i>
    <i name="Edipol_quadrupol">      0.00000000 </i>
    <i name="Eion">      0.00000000 </i>
   </dipole>
   <energy>
    <i name="alphaZ">      0.13444848 </i>
    <i name="ewald">     84.17288775 </i>
    <i name="hartreedc">   -478.44833109 </i>
    <i name="XCdc">     34.02225598 </i>
    <i name="pawpsdc">    545.42723942 </i>
    <i name="pawaedc">   -547.52813470 </i>
    <i name="eentropy">      0.00512352 </i>
    <i name="bandstr">   -109.32910761 </i>
    <i name="atom">    457.32929435 </i>
    <i name="e_fr_energy">    -14.21432392 </i>
    <i name="e_wo_entrp">    -14.21944744 </i>
    <i name="e_0_energy">    -14.21603176 </i>
   </energy>
  </scstep>
  <structure>
   <crystal>
    <varray name="basis" >
     <v>      10.16000000       0.00000000       0.00000000 </v>
     <v>       0.00000000      11.76000000       0.00000000 </v>
     <v>       0.00000000       0.00000000      15.00000000 </v>
    </varray>
    <i name="volume">   1792.22400000 </i>
    <varray name="rec_basis" >
     <v>       0.09842520       0.00000000       0.00000000 </v>
     <v>       0.00000000       0.08503401       0.00000000 </v>
     <v>       0.00000000       0.00000000       0.06666667 </v>
    </varray>
   </crystal>
   <varray name="positions" >
    <v>       0.00066359       0.00078399       0.00020206 </v>
    <v>       0.09631861       0.00349705       0.00087388 </v>
    <v>       0.97190780       0.07589896       0.01901406 </v>
   </varray>
  </structure>
  <varray name="forces" >
   <v>      -0.07114942      -0.05783889      -0.00388592 </v>
   <v>      -0.03257246       0.07084662       0.01532907 </v>
   <v>       0.10372188      -0.01300773      -0.01144316 </v>
  </varray>
  <varray name="stress" >
   <v>      -0.06351064       0.07260321       0.02015843 </v>
   <v>       0.07260320      -0.03741329      -0.00176216 </v>
   <v>       0.02015843      -0.00176216      -0.00599731 </v>
  </varray>
  <energy>
   <i name="e_fr_energy">    -14.21432392 </i>
   <i name="e_wo_entrp">    -14.21603176 </i>
   <i name="e_0_energy">      0.00512352 </i>
  </energy>
  <time name="totalsc">   82.49   82.54</time>
 </calculation>
 <calculation>
  <scstep>
   <time name="dav">    3.17    3.17</time>
   <time name="total">    4.38    4.38</time>
   <dipole>
    <v name="dipole">      0.00000000       0.00000000      -0.09249688 </v>
    <i name="Tr[quadrupol]">     -1.17506822 </i>
    <i name="Echarged">      0.00000000 </i>
    <i name="Edipol_quadrupol">      0.00000000 </i>
    <i name="Eion">      0.00000000 </i>
   </dipole>
   <energy>
    <i name="alphaZ">      0.12768483 </i>
    <i name="ewald">     84.16296803 </i>
    <i name="hartreedc">   -478.44359194 </i>
    <i name="XCdc">     34.02203591 </i>
    <i name="pawpsdc">    545.42843242 </i>
    <i name="pawaedc">   -547.52932805 </i>
    <i name="eentropy">      0.00512318 </i>
    <i name="bandstr">   -109.31694323 </i>
    <i name="atom">    457.32929435 </i>
    <i name="e_fr_energy">    -14.21432450 </i>
    <i name="e_wo_entrp">    -14.21944768 </i>
    <i name="e_0_energy">    -14.21603223 </i>
   </energy>
  </scstep>
  <scstep>
   <time name="dav">    3.53    3.53</time>
   <time name="total">    4.56    4.57</time>
   <dipole>
    <v name="dipole">      0.00000000       0.00000000      -0.09249898 </v>
    <i name="Tr[quadrupol]">     -1.17505385 </i>
    <i name="Echarged">      0.00000000 </i>
    <i name="Edipol_quadrupol">      0.00000000 </i>
    <i name="Eion">      0.00000000 </i>
   </dipole>
   <energy>
    <i name="alphaZ">      0.12768488 </i>
    <i name="ewald">     84.16296803 </i>
    <i name="hartreedc">   -478.44086666 </i>
    <i name="XCdc">     34.02188040 </i>
    <i name="pawpsdc">    545.41301611 </i>
    <i name="pawaedc">   -547.51386657 </i>
    <i name="eentropy">      0.00512380 </i>
    <i name="bandstr">   -109.31955894 </i>
    <i name="atom">    457.32929435 </i>
    <i name="e_fr_energy">    -14.21432459 </i>
    <i name="e_wo_entrp">    -14.21944840 </i>
    <i name="e_0_energy">    -14.21603253 </i>
   </energy>
  </scstep>
  <structure>
   <crystal>
    <varray name="basis" >
     <v>      10.16000000       0.00000000       0.00000000 </v>
     <v>       0.00000000      11.76000000       0.00000000 </v>
     <v>       0.00000000       0.00000000      15.00000000 </v>
    </varray>
    <i name="volume">   1792.22400000 </i>
    <varray name="rec_basis" >
     <v>       0.09842520       0.00000000       0.00000000 </v>
     <v>       0.00000000       0.08503401       0.00000000 </v>
     <v>       0.00000000       0.00000000       0.06666667 </v>
    </varray>
   </crystal>
   <varray name="positions" >
    <v>       0.00066163       0.00078168       0.00020146 </v>
    <v>       0.09632171       0.00349697       0.00087387 </v>
    <v>       0.97190665       0.07590135       0.01901467 </v>
   </varray>
  </structure>
  <varray name="forces" >
   <v>      -0.07132082      -0.05085423      -0.00314130 </v>
   <v>      -0.03402849       0.06840574       0.01529253 </v>
   <v>       0.10534931      -0.01755150      -0.01215122 </v>
  </varray>
  <varray name="stress" >
   <v>      -0.06508257       0.07073836       0.02027777 </v>
   <v>       0.07073836      -0.03353257      -0.00226108 </v>
   <v>       0.02027777      -0.00226108      -0.00653698 </v>
  </varray>
  <energy>
   <i name="e_fr_energy">    -14.21432459 </i>
   <i name="e_wo_entrp">    -14.21603253 </i>
   <i name="e_0_energy">      0.00512380 </i>
  </energy>
  <time name="totalsc">   15.04   15.05</time>
 </calculation>
 <calculation>
  <scstep>
   <time name="dav">    2.86    2.86</time>
   <time name="total">    4.05    4.05</time>
   <dipole>
    <v name="dipole">      0.00000000       0.00000000      -0.09250129 </v>
    <i name="Tr[quadrupol]">     -1.16720334 </i>
    <i name="Echarged">      0.00000000 </i>
    <i name="Edipol_quadrupol">      0.00000000 </i>
    <i name="Eion">      0.00000000 </i>
   </dipole>
   <energy>
    <i name="alphaZ">      0.12768325 </i>
    <i name="ewald">     84.24479630 </i>
    <i name="hartreedc">   -478.52269528 </i>
    <i name="XCdc">     34.02700141 </i>
    <i name="pawpsdc">    545.40550529 </i>
    <i name="pawaedc">   -547.50634107 </i>
    <i name="eentropy">      0.00512243 </i>
    <i name="bandstr">   -109.32525808 </i>
    <i name="atom">    457.32929435 </i>
    <i name="e_fr_energy">    -14.21489141 </i>
    <i name="e_wo_entrp">    -14.22001383 </i>
    <i name="e_0_energy">    -14.21659888 </i>
   </energy>
  </scstep>
  <scstep>
   <time name="dav">    3.19    3.19</time>
   <time name="total">    4.38    4.38</time>
   <dipole>
    <v name="dipole">      0.00000000       0.00000000      -0.09247601 </v>
    <i name="Tr[quadrupol]">     -1.16716074 </i>
    <i name="Echarged">      0.00000000 </i>
    <i name="Edipol_quadrupol">      0.00000000 </i>
    <i name="Eion">      0.00000000 </i>
   </dipole>
   <energy>
    <i name="e_fr_energy">    -14.21492505 </i>
    <i name="e_wo_entrp">    -14.22005511 </i>
    <i name="e_0_energy">    -14.21663507 </i>
   </energy>
  </scstep>
  <scstep>
   <time name="dav">    3.75    3.75</time>
   <time name="total">    4.94    4.94</time>
   <dipole>
    <v name="dipole">      0.00000000       0.00000000      -0.09247273 </v>
    <i name="Tr[quadrupol]">     -1.16718313 </i>
    <i name="Echarged">      0.00000000 </i>
    <i name="Edipol_quadrupol">      0.00000000 </i>
    <i name="Eion">      0.00000000 </i>
   </dipole>
   <energy>
    <i name="e_fr_energy">    -14.21491999 </i>
    <i name="e_wo_entrp">    -14.22001870 </i>
    <i name="e_0_energy">    -14.21661956 </i>
   </energy>
  </scstep>
  <scstep>
   <time name="dav">    3.08    3.08</time>
   <time name="total">    4.27    4.28</time>
   <dipole>
    <v name="dipole">      0.00000000       0.00000000      -0.09246483 </v>
    <i name="Tr[quadrupol]">     -1.16720808 </i>
    <i name="Echarged">      0.00000000 </i>
    <i name="Edipol_quadrupol">      0.00000000 </i>
    <i name="Eion">      0.00000000 </i>
   </dipole>
   <energy>
    <i name="e_fr_energy">    -14.21491309 </i>
    <i name="e_wo_entrp">    -14.22017941 </i>
    <i name="e_0_energy">    -14.21666853 </i>
   </energy>
  </scstep>
  <scstep>
   <time name="dav">    2.96    2.96</time>
   <time name="total">    4.16    4.16</time>
   <dipole>
    <v name="dipole">      0.00000000       0.00000000      -0.09246305 </v>
    <i name="Tr[quadrupol]">     -1.16721112 </i>
    <i name="Echarged">      0.00000000 </i>
    <i name="Edipol_quadrupol">      0.00000000 </i>
    <i name="Eion">      0.00000000 </i>
   </dipole>
   <energy>
    <i name="e_fr_energy">    -14.21492144 </i>
    <i name="e_wo_entrp">    -14.22003601 </i>
    <i name="e_0_energy">    -14.21662630 </i>
   </energy>
  </scstep>
  <scstep>
   <time name="dav">    3.14    3.14</time>
   <time name="total">    4.34    4.34</time>
   <dipole>
    <v name="dipole">      0.00000000       0.00000000      -0.09245957 </v>
    <i name="Tr[quadrupol]">     -1.16721523 </i>
    <i name="Echarged">      0.00000000 </i>
    <i name="Edipol_quadrupol">      0.00000000 </i>
    <i name="Eion">      0.00000000 </i>
   </dipole>
   <energy>
    <i name="e_fr_energy">    -14.21492564 </i>
    <i name="e_wo_entrp">    -14.22004884 </i>
    <i name="e_0_energy">    -14.21663338 </i>
   </energy>
  </scstep>
  <scstep>
   <time name="dav">    3.20    3.20</time>
   <time name="total">    4.40    4.40</time>
   <dipole>
    <v name="dipole">      0.00000000       0.00000000      -0.09245615 </v>
    <i name="Tr[quadrupol]">     -1.16722593 </i>
    <i name="Echarged">      0.00000000 </i>
    <i name="Edipol_quadrupol">      0.00000000 </i>
    <i name="Eion">      0.00000000 </i>
   </dipole>
   <energy>
    <i name="e_fr_energy">    -14.21492822 </i>
    <i name="e_wo_entrp">    -14.22005275 </i>
    <i name="e_0_energy">    -14.21663640 </i>
   </energy>
  </scstep>
  <scstep>
   <time name="dav">    3.05    3.05</time>
   <time name="total">    4.25    4.25</time>
   <dipole>
    <v name="dipole">      0.00000000       0.00000000      -0.09245029 </v>
    <i name="Tr[quadrupol]">     -1.16724415 </i>
    <i name="Echarged">      0.00000000 </i>
    <i name="Edipol_quadrupol">      0.00000000 </i>
    <i name="Eion">      0.00000000 </i>
   </dipole>
   <energy>
    <i name="e_fr_energy">    -14.21493192 </i>
    <i name="e_wo_entrp">    -14.22005449 </i>
    <i name="e_0_energy">    -14.21663944 </i>
   </energy>
  </scstep>
  <scstep>
   <time name="dav">    3.27    3.27</time>
   <time name="total">    4.47    4.47</time>
   <dipole>
    <v name="dipole">      0.00000000       0.00000000      -0.09244552 </v>
    <i name="Tr[quadrupol]">     -1.16725627 </i>
    <i name="Echarged">      0.00000000 </i>
    <i name="Edipol_quadrupol">      0.00000000 </i>
    <i name="Eion">      0.00000000 </i>
   </dipole>
   <energy>
    <i name="e_fr_energy">    -14.21493451 </i>
    <i name="e_wo_entrp">    -14.22005822 </i>
    <i name="e_0_energy">    -14.21664241 </i>
   </energy>
  </scstep>
  <scstep>
   <time name="dav">    3.18    3.18</time>
   <time name="total">    4.38    4.38</time>
   <dipole>
    <v name="dipole">      0.00000000       0.00000000      -0.09243747 </v>
    <i name="Tr[quadrupol]">     -1.16727889 </i>
    <i name="Echarged">      0.00000000 </i>
    <i name="Edipol_quadrupol">      0.00000000 </i>
    <i name="Eion">      0.00000000 </i>
   </dipole>
   <energy>
    <i name="e_fr_energy">    -14.21493812 </i>
    <i name="e_wo_entrp">    -14.22006185 </i>
    <i name="e_0_energy">    -14.21664603 </i>
   </energy>
  </scstep>
  <scstep>
   <time name="dav">    3.60    3.60</time>
   <time name="total">    4.82    4.82</time>
   <dipole>
    <v name="dipole">      0.00000000       0.00000000      -0.09243341 </v>
    <i name="Tr[quadrupol]">     -1.16729202 </i>
    <i name="Echarged">      0.00000000 </i>
    <i name="Edipol_quadrupol">      0.00000000 </i>
    <i name="Eion">      0.00000000 </i>
   </dipole>
   <energy>
    <i name="e_fr_energy">    -14.21493960 </i>
    <i name="e_wo_entrp">    -14.22006301 </i>
    <i name="e_0_energy">    -14.21664740 </i>
   </energy>
  </scstep>
  <scstep>
   <time name="dav">    3.21    3.21</time>
   <time name="total">    4.43    4.43</time>
   <dipole>
    <v name="dipole">      0.00000000       0.00000000      -0.09242794 </v>
    <i name="Tr[quadrupol]">     -1.16730919 </i>
    <i name="Echarged">      0.00000000 </i>
    <i name="Edipol_quadrupol">      0.00000000 </i>
    <i name="Eion">      0.00000000 </i>
   </dipole>
   <energy>
    <i name="e_fr_energy">    -14.21494110 </i>
    <i name="e_wo_entrp">    -14.22006429 </i>
    <i name="e_0_energy">    -14.21664883 </i>
   </energy>
  </scstep>
  <scstep>
   <time name="dav">    3.19    3.19</time>
   <time name="total">    4.21    4.21</time>
   <dipole>
    <v name="dipole">      0.00000000       0.00000000      -0.09242368 </v>
    <i name="Tr[quadrupol]">     -1.16732243 </i>
    <i name="Echarged">      0.00000000 </i>
    <i name="Edipol_quadrupol">      0.00000000 </i>
    <i name="Eion">      0.00000000 </i>
   </dipole>
   <energy>
    <i name="alphaZ">      0.12768147 </i>
    <i name="ewald">     84.24479630 </i>
    <i name="hartreedc">   -478.48230659 </i>
    <i name="XCdc">     34.02411352 </i>
    <i name="pawpsdc">    545.43415468 </i>
    <i name="pawaedc">   -547.53246429 </i>
    <i name="eentropy">      0.00512333 </i>
    <i name="bandstr">   -109.36533464 </i>
    <i name="atom">    457.32929435 </i>
    <i name="e_fr_energy">    -14.21494187 </i>
    <i name="e_wo_entrp">    -14.22006520 </i>
    <i name="e_0_energy">    -14.21664965 </i>
   </energy>
  </scstep>
  <structure>
   <crystal>
    <varray name="basis" >
     <v>      10.16000000       0.00000000       0.00000000 </v>
     <v>       0.00000000      11.76000000       0.00000000 </v>
     <v>       0.00000000       0.00000000      15.00000000 </v>
    </varray>
    <i name="volume">   1792.22400000 </i>
    <varray name="rec_basis" >
     <v>       0.09842520       0.00000000       0.00000000 </v>
     <v>       0.00000000       0.08503401       0.00000000 </v>
     <v>       0.00000000       0.00000000       0.06666667 </v>
    </varray>
   </crystal>
   <varray name="positions" >
    <v>       0.00039327       0.00062797       0.00019910 </v>
    <v>       0.09615134       0.00373720       0.00091595 </v>
    <v>       0.97234539       0.07581483       0.01897495 </v>
   </varray>
  </structure>
  <varray name="forces" >
   <v>       0.04970110      -0.06592873      -0.01462364 </v>
   <v>      -0.07413145       0.01299379       0.00100299 </v>
   <v>       0.02443035       0.05293494       0.01362064 </v>
  </varray>
  <varray name="stress" >
   <v>      -0.08087429       0.00385924       0.00017576 </v>
   <v>       0.00385924       0.00956363       0.02103016 </v>
   <v>       0.00017576       0.02103016       0.00000403 </v>
  </varray>
  <energy>
   <i name="e_fr_energy">    -14.21494187 </i>
   <i name="e_wo_entrp">    -14.21664965 </i>
   <i name="e_0_energy">      0.00512333 </i>
  </energy>
  <time name="totalsc">   63.15   63.20</time>
 </calculation>
 <calculation>
  <scstep>
   <time name="dav">    3.15    3.15</time>
   <time name="total">    4.35    4.35</time>
   <dipole>
    <v name="dipole">      0.00000000       0.00000000      -0.09242090 </v>
    <i name="Tr[quadrupol]">     -1.16553581 </i>
    <i name="Echarged">      0.00000000 </i>
    <i name="Edipol_quadrupol">      0.00000000 </i>
    <i name="Eion">      0.00000000 </i>
   </dipole>
   <energy>
    <i name="alphaZ">      0.12768102 </i>
    <i name="ewald">     84.26302496 </i>
    <i name="hartreedc">   -478.50096968 </i>
    <i name="XCdc">     34.02528390 </i>
    <i name="pawpsdc">    545.43399640 </i>
    <i name="pawaedc">   -547.53230650 </i>
    <i name="eentropy">      0.00512355 </i>
    <i name="bandstr">   -109.36609017 </i>
    <i name="atom">    457.32929435 </i>
    <i name="e_fr_energy">    -14.21496219 </i>
    <i name="e_wo_entrp">    -14.22008573 </i>
    <i name="e_0_energy">    -14.21667003 </i>
   </energy>
  </scstep>
  <scstep>
   <time name="dav">    3.01    3.01</time>
   <time name="total">    4.21    4.22</time>
   <dipole>
    <v name="dipole">      0.00000000       0.00000000      -0.09241350 </v>
    <i name="Tr[quadrupol]">     -1.16553009 </i>
    <i name="Echarged">      0.00000000 </i>
    <i name="Edipol_quadrupol">      0.00000000 </i>
    <i name="Eion">      0.00000000 </i>
   </dipole>
   <energy>
    <i name="e_fr_energy">    -14.21496409 </i>
    <i name="e_wo_entrp">    -14.22008734 </i>
    <i name="e_0_energy">    -14.21667184 </i>
   </energy>
  </scstep>
  <scstep>
   <time name="dav">    3.20    3.20</time>
   <time name="total">    4.22    4.23</time>
   <dipole>
    <v name="dipole">      0.00000000       0.00000000      -0.09241189 </v>
    <i name="Tr[quadrupol]">     -1.16553978 </i>
    <i name="Echarged">      0.00000000 </i>
    <i name="Edipol_quadrupol">      0.00000000 </i>
    <i name="Eion">      0.00000000 </i>
   </dipole>
   <energy>
    <i name="alphaZ">      0.12768081 </i>
    <i name="ewald">     84.26302496 </i>
    <i name="hartreedc">   -478.49442425 </i>
    <i name="XCdc">     34.02481349 </i>
    <i name="pawpsdc">    545.44548866 </i>
    <i name="pawaedc">   -547.54347135 </i>
    <i name="eentropy">      0.00512384 </i>
    <i name="bandstr">   -109.37249430 </i>
    <i name="atom">    457.32929435 </i>
    <i name="e_fr_energy">    -14.21496380 </i>
    <i name="e_wo_entrp">    -14.22008764 </i>
    <i name="e_0_energy">    -14.21667175 </i>
   </energy>
  </scstep>
  <structure>
   <crystal>
    <varray name="basis" >
     <v>      10.16000000       0.00000000       0.00000000 </v>
     <v>       0.00000000      11.76000000       0.00000000 </v>
     <v>       0.00000000       0.00000000      15.00000000 </v>
    </varray>
    <i name="volume">   1792.22400000 </i>
    <varray name="rec_basis" >
     <v>       0.09842520       0.00000000       0.00000000 </v>
     <v>       0.00000000       0.08503401       0.00000000 </v>
     <v>       0.00000000       0.00000000       0.06666667 </v>
    </varray>
   </crystal>
   <varray name="positions" >
    <v>       0.00033087       0.00059223       0.00019855 </v>
    <v>       0.09611172       0.00379306       0.00092573 </v>
    <v>       0.97244741       0.07579471       0.01896572 </v>
   </varray>
  </structure>
  <varray name="forces" >
   <v>       0.07450109      -0.06607487      -0.01363290 </v>
   <v>      -0.08156364      -0.00164736      -0.00415860 </v>
   <v>       0.00706255       0.06772223       0.01779150 </v>
  </varray>
  <varray name="stress" >
   <v>      -0.08323110      -0.01229610      -0.00517513 </v>
   <v>      -0.01229610       0.01334383       0.02159928 </v>
   <v>      -0.00517513       0.02159928      -0.00012954 </v>
  </varray>
  <energy>
   <i name="e_fr_energy">    -14.21496380 </i>
   <i name="e_wo_entrp">    -14.21667175 </i>
   <i name="e_0_energy">      0.00512384 </i>
  </energy>
  <time name="totalsc">   18.73   18.75</time>
 </calculation>
 <calculation>
  <scstep>
   <time name="dav">    2.97    2.97</time>
   <time name="total">    4.17    4.17</time>
   <dipole>
    <v name="dipole">      0.00000000       0.00000000      -0.09240758 </v>
    <i name="Tr[quadrupol]">     -1.16005220 </i>
    <i name="Echarged">      0.00000000 </i>
    <i name="Edipol_quadrupol">      0.00000000 </i>
    <i name="Eion">      0.00000000 </i>
   </dipole>
   <energy>
    <i name="alphaZ">      0.12766227 </i>
    <i name="ewald">     84.31545103 </i>
    <i name="hartreedc">   -478.54767941 </i>
    <i name="XCdc">     34.02812956 </i>
    <i name="pawpsdc">    545.44651965 </i>
    <i name="pawaedc">   -547.54430575 </i>
    <i name="eentropy">      0.00512066 </i>
    <i name="bandstr">   -109.37499123 </i>
    <i name="atom">    457.32929435 </i>
    <i name="e_fr_energy">    -14.21479889 </i>
    <i name="e_wo_entrp">    -14.21991955 </i>
    <i name="e_0_energy">    -14.21650577 </i>
   </energy>
  </scstep>
  <scstep>
   <time name="dav">    3.18    3.18</time>
   <time name="total">    4.38    4.38</time>
   <dipole>
    <v name="dipole">      0.00000000       0.00000000      -0.09242311 </v>
    <i name="Tr[quadrupol]">     -1.14355516 </i>
    <i name="Echarged">      0.00000000 </i>
    <i name="Edipol_quadrupol">      0.00000000 </i>
    <i name="Eion">      0.00000000 </i>
   </dipole>
   <energy>
    <i name="e_fr_energy">    -14.21486966 </i>
    <i name="e_wo_entrp">    -14.22000308 </i>
    <i name="e_0_energy">    -14.21658080 </i>
   </energy>
  </scstep>
  <scstep>
   <time name="dav">    3.17    3.17</time>
   <time name="total">    4.38    4.38</time>
   <dipole>
    <v name="dipole">      0.00000000       0.00000000      -0.09244007 </v>
    <i name="Tr[quadrupol]">     -1.14357472 </i>
    <i name="Echarged">      0.00000000 </i>
    <i name="Edipol_quadrupol">      0.00000000 </i>
    <i name="Eion">      0.00000000 </i>
   </dipole>
   <energy>
    <i name="e_fr_energy">    -14.21485506 </i>
    <i name="e_wo_entrp">    -14.21994830 </i>
    <i name="e_0_energy">    -14.21655281 </i>
   </energy>
  </scstep>
  <scstep>
   <time name="dav">    3.01    3.01</time>
   <time name="total">    4.22    4.22</time>
   <dipole>
    <v name="dipole">      0.00000000       0.00000000      -0.09245713 </v>
    <i name="Tr[quadrupol]">     -1.14359266 </i>
    <i name="Echarged">      0.00000000 </i>
    <i name="Edipol_quadrupol">      0.00000000 </i>
    <i name="Eion">      0.00000000 </i>
   </dipole>
   <energy>
    <i name="e_fr_energy">    -14.21483688 </i>
    <i name="e_wo_entrp">    -14.22016147 </i>
    <i name="e_0_energy">    -14.21661175 </i>
   </energy>
  </scstep>
  <scstep>
   <time name="dav">    3.01    3.01</time>
   <time name="total">    4.21    4.21</time>
   <dipole>
    <v name="dipole">      0.00000000       0.00000000      -0.09246079 </v>
    <i name="Tr[quadrupol]">     -1.14359761 </i>
    <i name="Echarged">      0.00000000 </i>
[...]
       <r>    -6.0518     0.0000     4.0000 </r>
       <r>    -5.9554     0.0000     4.0000 </r>
       <r>    -5.8589     0.0000     4.0000 </r>
       <r>    -5.7625     0.0000     4.0000 </r>
       <r>    -5.6661     0.0000     4.0000 </r>
       <r>    -5.5697     0.0000     4.0000 </r>
       <r>    -5.4732     0.0000     4.0000 </r>
       <r>    -5.3768     0.0000     4.0000 </r>
       <r>    -5.2804     0.0000     4.0000 </r>
       <r>    -5.1840     0.0000     4.0000 </r>
       <r>    -5.0875     0.0000     4.0000 </r>
       <r>    -4.9911     0.0000     4.0000 </r>
       <r>    -4.8947     0.0000     4.0000 </r>
       <r>    -4.7983     0.0000     4.0000 </r>
       <r>    -4.7018     0.0000     4.0000 </r>
       <r>    -4.6054     0.0000     4.0000 </r>
       <r>    -4.5090     0.0000     4.0000 </r>
       <r>    -4.4126     0.0000     4.0000 </r>
       <r>    -4.3161     0.0000     4.0000 </r>
       <r>    -4.2197     0.0000     4.0000 </r>
       <r>    -4.1233     0.0000     4.0000 </r>
       <r>    -4.0269     0.0000     4.0000 </r>
       <r>    -3.9304     0.0000     4.0000 </r>
       <r>    -3.8340     0.0000     4.0000 </r>
       <r>    -3.7376     0.0000     4.0000 </r>
       <r>    -3.6412     0.0000     4.0000 </r>
       <r>    -3.5447     0.0000     4.0000 </r>
       <r>    -3.4483     0.0000     4.0000 </r>
       <r>    -3.3519     0.0000     4.0000 </r>
       <r>    -3.2555     0.0000     4.0000 </r>
       <r>    -3.1590     0.0000     4.0000 </r>
       <r>    -3.0626     0.0000     4.0000 </r>
       <r>    -2.9662     0.0000     4.0000 </r>
       <r>    -2.8698     0.0000     4.0000 </r>
       <r>    -2.7733     0.0000     4.0000 </r>
       <r>    -2.6769     0.0000     4.0000 </r>
       <r>    -2.5805     0.0000     4.0000 </r>
       <r>    -2.4841     0.0000     4.0000 </r>
       <r>    -2.3876     0.0000     4.0000 </r>
       <r>    -2.2912     0.0000     4.0000 </r>
       <r>    -2.1948     0.0000     4.0000 </r>
       <r>    -2.0984     0.0000     4.0000 </r>
       <r>    -2.0019     0.0000     4.0000 </r>
       <r>    -1.9055     0.0000     4.0000 </r>
       <r>    -1.8091    -0.0000     4.0000 </r>
       <r>    -1.7127    -0.0000     4.0000 </r>
       <r>    -1.6162    -0.0000     4.0000 </r>
       <r>    -1.5198    -0.0000     4.0000 </r>
       <r>    -1.4234    -0.0000     4.0000 </r>
       <r>    -1.3270    -0.0000     4.0000 </r>
       <r>    -1.2305    -0.0036     3.9997 </r>
       <r>    -1.1341    -0.1222     3.9879 </r>
       <r>    -1.0377     0.1283     4.0002 </r>
       <r>    -0.9413     5.3636     4.5174 </r>
       <r>    -0.8448     5.1177     5.0109 </r>
       <r>    -0.7484    -0.0030     5.0106 </r>
       <r>    -0.6520    -0.1077     5.0002 </r>
       <r>    -0.5556    -0.0024     5.0000 </r>
       <r>    -0.4591    -0.0000     5.0000 </r>
       <r>    -0.3627    -0.0000     5.0000 </r>
       <r>    -0.2663    -0.0000     5.0000 </r>
       <r>    -0.1699    -0.0000     5.0000 </r>
       <r>    -0.0734    -0.0033     4.9997 </r>
       <r>     0.0230    -0.0877     4.9912 </r>
       <r>     0.1194     0.1083     5.0017 </r>
       <r>     0.2158     3.5338     5.3424 </r>
       <r>     0.3123     5.7744     5.8992 </r>
       <r>     0.4087     6.3088     6.5075 </r>
       <r>     0.5051     4.5320     6.9445 </r>
       <r>     0.6015     4.9400     7.4209 </r>
       <r>     0.6980     2.8972     7.7002 </r>
       <r>     0.7944     5.3859     8.2196 </r>
       <r>     0.8908     8.1053     9.0011 </r>
       <r>     0.9872     8.1615     9.7881 </r>
       <r>     1.0837     2.4230    10.0217 </r>
       <r>     1.1801    -0.1784    10.0045 </r>
       <r>     1.2765    -0.0459    10.0001 </r>
       <r>     1.3729    -0.0012    10.0000 </r>
       <r>     1.4694    -0.0000    10.0000 </r>
       <r>     1.5658    -0.0000    10.0000 </r>
       <r>     1.6622    -0.0000    10.0000 </r>
       <r>     1.7586     0.0000    10.0000 </r>
       <r>     1.8551     0.0000    10.0000 </r>
       <r>     1.9515     0.0000    10.0000 </r>
       <r>     2.0479     0.0000    10.0000 </r>
       <r>     2.1444     0.0000    10.0000 </r>
       <r>     2.2408     0.0000    10.0000 </r>
       <r>     2.3372     0.0000    10.0000 </r>
      </set>
      <set comment="spin 2">
       <r>   -26.5904     0.0000     0.0000 </r>
       <r>   -26.4940     0.0000     0.0000 </r>
       <r>   -26.3975     0.0000     0.0000 </r>
       <r>   -26.3011     0.0000     0.0000 </r>
       <r>   -26.2047     0.0000     0.0000 </r>
       <r>   -26.1083    -0.0000    -0.0000 </r>
       <r>   -26.0118    -0.0000    -0.0000 </r>
       <r>   -25.9154    -0.0000    -0.0000 </r>
       <r>   -25.8190    -0.0000    -0.0000 </r>
       <r>   -25.7226    -0.0000    -0.0000 </r>
       <r>   -25.6261    -0.0000    -0.0000 </r>
       <r>   -25.5297    -0.0011    -0.0001 </r>
       <r>   -25.4333    -0.0798    -0.0078 </r>
       <r>   -25.3368    -0.2205    -0.0291 </r>
       <r>   -25.2404     4.7950     0.4333 </r>
       <r>   -25.1440     5.9678     1.0087 </r>
       <r>   -25.0476     0.0401     1.0126 </r>
       <r>   -24.9511    -0.1281     1.0003 </r>
       <r>   -24.8547    -0.0026     1.0000 </r>
       <r>   -24.7583    -0.0000     1.0000 </r>
       <r>   -24.6619    -0.0000     1.0000 </r>
       <r>   -24.5654    -0.0000     1.0000 </r>
       <r>   -24.4690     0.0000     1.0000 </r>
       <r>   -24.3726     0.0000     1.0000 </r>
       <r>   -24.2762     0.0000     1.0000 </r>
       <r>   -24.1797     0.0000     1.0000 </r>
       <r>   -24.0833     0.0000     1.0000 </r>
       <r>   -23.9869     0.0000     1.0000 </r>
       <r>   -23.8905     0.0000     1.0000 </r>
       <r>   -23.7940     0.0000     1.0000 </r>
       <r>   -23.6976     0.0000     1.0000 </r>
       <r>   -23.6012     0.0000     1.0000 </r>
       <r>   -23.5048     0.0000     1.0000 </r>
       <r>   -23.4083     0.0000     1.0000 </r>
       <r>   -23.3119     0.0000     1.0000 </r>
       <r>   -23.2155     0.0000     1.0000 </r>
       <r>   -23.1191     0.0000     1.0000 </r>
       <r>   -23.0226     0.0000     1.0000 </r>
       <r>   -22.9262     0.0000     1.0000 </r>
       <r>   -22.8298     0.0000     1.0000 </r>
       <r>   -22.7334     0.0000     1.0000 </r>
       <r>   -22.6369     0.0000     1.0000 </r>
       <r>   -22.5405     0.0000     1.0000 </r>
       <r>   -22.4441     0.0000     1.0000 </r>
       <r>   -22.3477     0.0000     1.0000 </r>
       <r>   -22.2512     0.0000     1.0000 </r>
       <r>   -22.1548     0.0000     1.0000 </r>
       <r>   -22.0584     0.0000     1.0000 </r>
       <r>   -21.9620     0.0000     1.0000 </r>
       <r>   -21.8655     0.0000     1.0000 </r>
       <r>   -21.7691     0.0000     1.0000 </r>
       <r>   -21.6727     0.0000     1.0000 </r>
       <r>   -21.5763     0.0000     1.0000 </r>
       <r>   -21.4798     0.0000     1.0000 </r>
       <r>   -21.3834     0.0000     1.0000 </r>
       <r>   -21.2870     0.0000     1.0000 </r>
       <r>   -21.1906     0.0000     1.0000 </r>
       <r>   -21.0941     0.0000     1.0000 </r>
       <r>   -20.9977     0.0000     1.0000 </r>
       <r>   -20.9013     0.0000     1.0000 </r>
       <r>   -20.8049     0.0000     1.0000 </r>
       <r>   -20.7084     0.0000     1.0000 </r>
       <r>   -20.6120     0.0000     1.0000 </r>
       <r>   -20.5156     0.0000     1.0000 </r>
       <r>   -20.4192     0.0000     1.0000 </r>
       <r>   -20.3227     0.0000     1.0000 </r>
       <r>   -20.2263     0.0000     1.0000 </r>
       <r>   -20.1299     0.0000     1.0000 </r>
       <r>   -20.0335     0.0000     1.0000 </r>
       <r>   -19.9370     0.0000     1.0000 </r>
       <r>   -19.8406     0.0000     1.0000 </r>
       <r>   -19.7442     0.0000     1.0000 </r>
       <r>   -19.6478     0.0000     1.0000 </r>
       <r>   -19.5513     0.0000     1.0000 </r>
       <r>   -19.4549     0.0000     1.0000 </r>
       <r>   -19.3585     0.0000     1.0000 </r>
       <r>   -19.2621     0.0000     1.0000 </r>
       <r>   -19.1656     0.0000     1.0000 </r>
       <r>   -19.0692     0.0000     1.0000 </r>
       <r>   -18.9728     0.0000     1.0000 </r>
       <r>   -18.8764     0.0000     1.0000 </r>
       <r>   -18.7799     0.0000     1.0000 </r>
       <r>   -18.6835     0.0000     1.0000 </r>
       <r>   -18.5871     0.0000     1.0000 </r>
       <r>   -18.4907     0.0000     1.0000 </r>
       <r>   -18.3942     0.0000     1.0000 </r>
       <r>   -18.2978     0.0000     1.0000 </r>
       <r>   -18.2014     0.0000     1.0000 </r>
       <r>   -18.1050     0.0000     1.0000 </r>
       <r>   -18.0085     0.0000     1.0000 </r>
       <r>   -17.9121     0.0000     1.0000 </r>
       <r>   -17.8157     0.0000     1.0000 </r>
       <r>   -17.7193     0.0000     1.0000 </r>
       <r>   -17.6228     0.0000     1.0000 </r>
       <r>   -17.5264     0.0000     1.0000 </r>
       <r>   -17.4300     0.0000     1.0000 </r>
       <r>   -17.3336     0.0000     1.0000 </r>
       <r>   -17.2371     0.0000     1.0000 </r>
       <r>   -17.1407     0.0000     1.0000 </r>
       <r>   -17.0443     0.0000     1.0000 </r>
       <r>   -16.9479     0.0000     1.0000 </r>
       <r>   -16.8514     0.0000     1.0000 </r>
       <r>   -16.7550     0.0000     1.0000 </r>
       <r>   -16.6586     0.0000     1.0000 </r>
       <r>   -16.5622     0.0000     1.0000 </r>
       <r>   -16.4657     0.0000     1.0000 </r>
       <r>   -16.3693     0.0000     1.0000 </r>
       <r>   -16.2729     0.0000     1.0000 </r>
       <r>   -16.1764     0.0000     1.0000 </r>
       <r>   -16.0800     0.0000     1.0000 </r>
       <r>   -15.9836     0.0000     1.0000 </r>
       <r>   -15.8872     0.0000     1.0000 </r>
       <r>   -15.7907     0.0000     1.0000 </r>
       <r>   -15.6943     0.0000     1.0000 </r>
       <r>   -15.5979     0.0000     1.0000 </r>
       <r>   -15.5015     0.0000     1.0000 </r>
       <r>   -15.4050     0.0000     1.0000 </r>
       <r>   -15.3086     0.0000     1.0000 </r>
       <r>   -15.2122     0.0000     1.0000 </r>
       <r>   -15.1158     0.0000     1.0000 </r>
       <r>   -15.0193     0.0000     1.0000 </r>
       <r>   -14.9229     0.0000     1.0000 </r>
       <r>   -14.8265     0.0000     1.0000 </r>
       <r>   -14.7301     0.0000     1.0000 </r>
       <r>   -14.6336     0.0000     1.0000 </r>
       <r>   -14.5372     0.0000     1.0000 </r>
       <r>   -14.4408     0.0000     1.0000 </r>
       <r>   -14.3444     0.0000     1.0000 </r>
       <r>   -14.2479     0.0000     1.0000 </r>
       <r>   -14.1515     0.0000     1.0000 </r>
       <r>   -14.0551     0.0000     1.0000 </r>
       <r>   -13.9587     0.0000     1.0000 </r>
       <r>   -13.8622    -0.0000     1.0000 </r>
       <r>   -13.7658    -0.0000     1.0000 </r>
       <r>   -13.6694    -0.0000     1.0000 </r>
       <r>   -13.5730    -0.0000     1.0000 </r>
       <r>   -13.4765    -0.0000     1.0000 </r>
       <r>   -13.3801    -0.0002     1.0000 </r>
       <r>   -13.2837    -0.0228     0.9978 </r>
       <r>   -13.1873    -0.3121     0.9677 </r>
       <r>   -13.0908     2.1658     1.1765 </r>
       <r>   -12.9944     7.4313     1.8931 </r>
       <r>   -12.8980     1.3919     2.0273 </r>
       <r>   -12.8016    -0.2695     2.0013 </r>
       <r>   -12.7051    -0.0135     2.0000 </r>
       <r>   -12.6087    -0.0001     2.0000 </r>
       <r>   -12.5123    -0.0000     2.0000 </r>
       <r>   -12.4159    -0.0000     2.0000 </r>
       <r>   -12.3194     0.0000     2.0000 </r>
       <r>   -12.2230     0.0000     2.0000 </r>
       <r>   -12.1266     0.0000     2.0000 </r>
       <r>   -12.0302     0.0000     2.0000 </r>
       <r>   -11.9337     0.0000     2.0000 </r>
       <r>   -11.8373     0.0000     2.0000 </r>
       <r>   -11.7409     0.0000     2.0000 </r>
       <r>   -11.6445     0.0000     2.0000 </r>
       <r>   -11.5480     0.0000     2.0000 </r>
       <r>   -11.4516     0.0000     2.0000 </r>
       <r>   -11.3552     0.0000     2.0000 </r>
       <r>   -11.2588     0.0000     2.0000 </r>
       <r>   -11.1623     0.0000     2.0000 </r>
       <r>   -11.0659     0.0000     2.0000 </r>
       <r>   -10.9695     0.0000     2.0000 </r>
       <r>   -10.8731     0.0000     2.0000 </r>
       <r>   -10.7766     0.0000     2.0000 </r>
       <r>   -10.6802     0.0000     2.0000 </r>
       <r>   -10.5838     0.0000     2.0000 </r>
       <r>   -10.4874     0.0000     2.0000 </r>
       <r>   -10.3909     0.0000     2.0000 </r>
       <r>   -10.2945     0.0000     2.0000 </r>
       <r>   -10.1981     0.0000     2.0000 </r>
       <r>   -10.1017    -0.0000     2.0000 </r>
       <r>   -10.0052    -0.0000     2.0000 </r>
       <r>    -9.9088    -0.0000     2.0000 </r>
       <r>    -9.8124    -0.0000     2.0000 </r>
       <r>    -9.7160    -0.0000     2.0000 </r>
       <r>    -9.6195    -0.0000     2.0000 </r>
       <r>    -9.5231    -0.0005     2.0000 </r>
       <r>    -9.4267    -0.0464     1.9955 </r>
       <r>    -9.3303    -0.3200     1.9646 </r>
       <r>    -9.2338     3.5336     2.3054 </r>
       <r>    -9.1374     6.8819     2.9690 </r>
       <r>    -9.0410     0.5183     3.0189 </r>
       <r>    -8.9446    -0.1905     3.0006 </r>
       <r>    -8.8481    -0.0058     3.0000 </r>
       <r>    -8.7517    -0.0000     3.0000 </r>
       <r>    -8.6553    -0.0000     3.0000 </r>
       <r>    -8.5589    -0.0000     3.0000 </r>
       <r>    -8.4624     0.0000     3.0000 </r>
       <r>    -8.3660     0.0000     3.0000 </r>
       <r>    -8.2696     0.0000     3.0000 </r>
       <r>    -8.1732     0.0000     3.0000 </r>
       <r>    -8.0767     0.0000     3.0000 </r>
       <r>    -7.9803    -0.0000     3.0000 </r>
       <r>    -7.8839    -0.0000     3.0000 </r>
       <r>    -7.7875    -0.0000     3.0000 </r>
       <r>    -7.6910    -0.0000     3.0000 </r>
       <r>    -7.5946    -0.0000     3.0000 </r>
       <r>    -7.4982    -0.0000     3.0000 </r>
       <r>    -7.4018    -0.0017     2.9998 </r>
       <r>    -7.3053    -0.1000     2.9902 </r>
       <r>    -7.2089    -0.1246     2.9782 </r>
       <r>    -7.1125     5.3548     3.4945 </r>
       <r>    -7.0160     5.4514     4.0202 </r>
       <r>    -6.9196    -0.1034     4.0102 </r>
       <r>    -6.8232    -0.1040     4.0002 </r>
       <r>    -6.7268    -0.0018     4.0000 </r>
       <r>    -6.6303    -0.0000     4.0000 </r>
       <r>    -6.5339    -0.0000     4.0000 </r>
       <r>    -6.4375    -0.0000     4.0000 </r>
       <r>    -6.3411     0.0000     4.0000 </r>
       <r>    -6.2446     0.0000     4.0000 </r>
       <r>    -6.1482     0.0000     4.0000 </r>
       <r>    -6.0518     0.0000     4.0000 </r>
       <r>    -5.9554     0.0000     4.0000 </r>
       <r>    -5.8589     0.0000     4.0000 </r>
       <r>    -5.7625     0.0000     4.0000 </r>
       <r>    -5.6661     0.0000     4.0000 </r>
       <r>    -5.5697     0.0000     4.0000 </r>
       <r>    -5.4732     0.0000     4.0000 </r>
       <r>    -5.3768     0.0000     4.0000 </r>
       <r>    -5.2804     0.0000     4.0000 </r>
       <r>    -5.1840     0.0000     4.0000 </r>
       <r>    -5.0875     0.0000     4.0000 </r>
       <r>    -4.9911     0.0000     4.0000 </r>
       <r>    -4.8947     0.0000     4.0000 </r>
       <r>    -4.7983     0.0000     4.0000 </r>
       <r>    -4.7018     0.0000     4.0000 </r>
       <r>    -4.6054     0.0000     4.0000 </r>
       <r>    -4.5090     0.0000     4.0000 </r>
       <r>    -4.4126     0.0000     4.0000 </r>
       <r>    -4.3161     0.0000     4.0000 </r>
       <r>    -4.2197     0.0000     4.0000 </r>
       <r>    -4.1233     0.0000     4.0000 </r>
       <r>    -4.0269     0.0000     4.0000 </r>
       <r>    -3.9304     0.0000     4.0000 </r>
       <r>    -3.8340     0.0000     4.0000 </r>
       <r>    -3.7376     0.0000     4.0000 </r>
       <r>    -3.6412     0.0000     4.0000 </r>
       <r>    -3.5447     0.0000     4.0000 </r>
       <r>    -3.4483     0.0000     4.0000 </r>
       <r>    -3.3519     0.0000     4.0000 </r>
       <r>    -3.2555     0.0000     4.0000 </r>
       <r>    -3.1590     0.0000     4.0000 </r>
       <r>    -3.0626     0.0000     4.0000 </r>
       <r>    -2.9662     0.0000     4.0000 </r>
       <r>    -2.8698     0.0000     4.0000 </r>
       <r>    -2.7733     0.0000     4.0000 </r>
       <r>    -2.6769     0.0000     4.0000 </r>
       <r>    -2.5805     0.0000     4.0000 </r>
       <r>    -2.4841     0.0000     4.0000 </r>
       <r>    -2.3876     0.0000     4.0000 </r>
       <r>    -2.2912     0.0000     4.0000 </r>
       <r>    -2.1948     0.0000     4.0000 </r>
       <r>    -2.0984     0.0000     4.0000 </r>
       <r>    -2.0019     0.0000     4.0000 </r>
       <r>    -1.9055     0.0000     4.0000 </r>
       <r>    -1.8091    -0.0000     4.0000 </r>
       <r>    -1.7127    -0.0000     4.0000 </r>
       <r>    -1.6162    -0.0000     4.0000 </r>
       <r>    -1.5198    -0.0000     4.0000 </r>
       <r>    -1.4234    -0.0000     4.0000 </r>
       <r>    -1.3270    -0.0000     4.0000 </r>
       <r>    -1.2305    -0.0031     3.9997 </r>
       <r>    -1.1341    -0.1129     3.9888 </r>
       <r>    -1.0377     0.0665     3.9952 </r>
       <r>    -0.9413     5.1543     4.4922 </r>
       <r>    -0.8448     5.3267     5.0059 </r>
       <r>    -0.7484     0.0596     5.0116 </r>
       <r>    -0.6520    -0.1175     5.0003 </r>
       <r>    -0.5556    -0.0028     5.0000 </r>
       <r>    -0.4591    -0.0000     5.0000 </r>
       <r>    -0.3627    -0.0000     5.0000 </r>
       <r>    -0.2663    -0.0000     5.0000 </r>
       <r>    -0.1699    -0.0000     5.0000 </r>
       <r>    -0.0734    -0.0029     4.9997 </r>
       <r>     0.0230    -0.0830     4.9917 </r>
       <r>     0.1194     0.0663     4.9981 </r>
       <r>     0.2158     3.4503     5.3308 </r>
       <r>     0.3123     5.7982     5.8899 </r>
       <r>     0.4087     6.2989     6.4973 </r>
       <r>     0.5051     4.5418     6.9352 </r>
       <r>     0.6015     4.9894     7.4163 </r>
       <r>     0.6980     2.8501     7.6911 </r>
       <r>     0.7944     5.2790     8.2002 </r>
       <r>     0.8908     8.0803     8.9793 </r>
       <r>     0.9872     8.2603     9.7758 </r>
       <r>     1.0837     2.5551    10.0222 </r>
       <r>     1.1801    -0.1807    10.0048 </r>
       <r>     1.2765    -0.0483    10.0001 </r>
       <r>     1.3729    -0.0012    10.0000 </r>
       <r>     1.4694    -0.0000    10.0000 </r>
       <r>     1.5658    -0.0000    10.0000 </r>
       <r>     1.6622    -0.0000    10.0000 </r>
       <r>     1.7586     0.0000    10.0000 </r>
       <r>     1.8551     0.0000    10.0000 </r>
       <r>     1.9515     0.0000    10.0000 </r>
       <r>     2.0479     0.0000    10.0000 </r>
       <r>     2.1444     0.0000    10.0000 </r>
       <r>     2.2408     0.0000    10.0000 </r>
       <r>     2.3372     0.0000    10.0000 </r>
      </set>
     </set>
    </array>
   </total>
  </dos>
 </calculation>
 <structure name="finalpos" >
  <crystal>
   <varray name="basis" >
    <v>      10.16000000       0.00000000       0.00000000 </v>
    <v>       0.00000000      11.76000000       0.00000000 </v>
    <v>       0.00000000       0.00000000      15.00000000 </v>
   </varray>
   <i name="volume">   1792.22400000 </i>
   <varray name="rec_basis" >
    <v>       0.09842520       0.00000000       0.00000000 </v>
    <v>       0.00000000       0.08503401       0.00000000 </v>
    <v>       0.00000000       0.00000000       0.06666667 </v>
   </varray>
  </crystal>
  <varray name="positions" >
   <v>      -0.00015702       0.00051890       0.00107944 </v>
   <v>       0.09548706       0.00292943       0.00026209 </v>
   <v>       0.97355995       0.07673167       0.01874848 </v>
  </varray>
 </structure>
</modeling>
