Beta12Borophene !The name of the system 
           1
    10.160000    0.000000    0.000000
     0.000000   11.760000    0.000000
     0.000000    0.000000   15.000000
   O    H 
   1   2
Direct configuration=     1
   0.00000000  0.00000000  0.00000000
   0.09737000  0.00347000  0.00087000
   0.97152000  0.07671000  0.01922000
Direct configuration=     2
   0.00249242  0.00294463  0.00075892
   0.09342104  0.00357159  0.00088458
   0.97297654  0.07366378  0.01844649
Direct configuration=     3
   0.00066359  0.00078399  0.00020206
   0.09631861  0.00349705  0.00087388
   0.97190780  0.07589896  0.01901406
Direct configuration=     4
   0.00066163  0.00078168  0.00020146
   0.09632171  0.00349697  0.00087387
   0.97190665  0.07590135  0.01901467
Direct configuration=     5
   0.00039327  0.00062797  0.00019910
   0.09615134  0.00373720  0.00091595
   0.97234539  0.07581483  0.01897495
Direct configuration=     6
   0.00033087  0.00059223  0.00019855
   0.09611172  0.00379306  0.00092573
   0.97244741  0.07579471  0.01896572
Direct configuration=     7
   0.00037809  0.00035309  0.00017257
   0.09579785  0.00392494  0.00094198
   0.97271406  0.07590197  0.01897545
Direct configuration=     8
   0.00035145  0.00048798  0.00018722
   0.09597489  0.00385055  0.00093282
   0.97256365  0.07584147  0.01896996
Direct configuration=     9
   0.00035192  0.00048563  0.00018697
   0.09597180  0.00385185  0.00093298
   0.97256628  0.07584252  0.01897006
Direct configuration=    10
   0.00035174  0.00048652  0.00018706
   0.09597297  0.00385136  0.00093292
   0.97256528  0.07584212  0.01897002
Direct configuration=    11
   0.00035165  0.00048699  0.00018712
   0.09597359  0.00385110  0.00093288
   0.97256476  0.07584191  0.01897000
Direct configuration=    12
   0.00032674  0.00048155  0.00020141
   0.09595732  0.00383794  0.00092180
   0.97260594  0.07586051  0.01896679
Direct configuration=    13
   0.00025201  0.00046522  0.00024431
   0.09590851  0.00379847  0.00088853
   0.97272948  0.07591631  0.01895716
Direct configuration=    14
   0.00010255  0.00043256  0.00033011
   0.09581089  0.00371952  0.00082200
   0.97297656  0.07602792  0.01893790
Direct configuration=    15
   0.00009954  0.00043190  0.00033368
   0.09580597  0.00371573  0.00081919
   0.97298450  0.07603237  0.01893713
Direct configuration=    16
   0.00009050  0.00042993  0.00034441
   0.09579119  0.00370433  0.00081077
   0.97300832  0.07604573  0.01893482
Direct configuration=    17
   0.00007241  0.00042600  0.00036586
   0.09576163  0.00368155  0.00079393
   0.97305596  0.07607245  0.01893021
Direct configuration=    18
   0.00003625  0.00041813  0.00040877
   0.09570252  0.00363598  0.00076024
   0.97315124  0.07612589  0.01892099
Direct configuration=    19
  -0.00003608  0.00040238  0.00049457
   0.09558429  0.00354484  0.00069288
   0.97334180  0.07623278  0.01890255
Direct configuration=    20
  -0.00003261  0.00041359  0.00051199
   0.09557428  0.00352071  0.00067959
   0.97334833  0.07624570  0.01889842
Direct configuration=    21
  -0.00002217  0.00044723  0.00056422
   0.09554425  0.00344831  0.00063973
   0.97336792  0.07628446  0.01888604
Direct configuration=    22
  -0.00000131  0.00051450  0.00066869
   0.09548419  0.00330352  0.00056002
   0.97340712  0.07636199  0.01886129
Direct configuration=    23
  -0.00001073  0.00052085  0.00069294
   0.09549300  0.00327018  0.00054039
   0.97340773  0.07638897  0.01885668
Direct configuration=    24
  -0.00003901  0.00053991  0.00076568
   0.09551944  0.00317016  0.00048148
   0.97340957  0.07646993  0.01884284
Direct configuration=    25
  -0.00009556  0.00057804  0.00091117
   0.09557231  0.00297012  0.00036367
   0.97341325  0.07663185  0.01881516
Direct configuration=    26
  -0.00009579  0.00056287  0.00092911
   0.09556196  0.00296070  0.00035058
   0.97342383  0.07665643  0.01881031
Direct configuration=    27
  -0.00009631  0.00052909  0.00096908
   0.09553889  0.00293972  0.00032142
   0.97344742  0.07671119  0.01879950
Direct configuration=    28
  -0.00010133  0.00052331  0.00098507
   0.09553103  0.00293678  0.00031198
   0.97346030  0.07671992  0.01879295
Direct configuration=    29
  -0.00011639  0.00050596  0.00103301
   0.09550743  0.00292795  0.00028368
   0.97349896  0.07674609  0.01877331
Direct configuration=    30
  -0.00012319  0.00049813  0.00105464
   0.09549679  0.00292397  0.00027092
   0.97351640  0.07675790  0.01876445
Direct configuration=    31
  -0.00013902  0.00050955  0.00106579
   0.09549535  0.00292509  0.00026686
   0.97353367  0.07674536  0.01875735
Direct configuration=    32
  -0.00015458  0.00052077  0.00107676
   0.09549394  0.00292620  0.00026287
   0.97355065  0.07673304  0.01875037
Direct configuration=    33
  -0.00015597  0.00052176  0.00107773
   0.09549381  0.00292630  0.00026252
   0.97355215  0.07673194  0.01874975
Direct configuration=    34
  -0.00015555  0.00052146  0.00107744
   0.09549385  0.00292627  0.00026262
   0.97355170  0.07673227  0.01874994
Direct configuration=    35
  -0.00015702  0.00051890  0.00107944
   0.09548706  0.00292943  0.00026209
   0.97355995  0.07673167  0.01874848
