   6   6   0   0
  0.2987040E+03  0.1016000E-08  0.1176000E-08  0.1500000E-08  0.5000000E-15
  1.000000000000000E-004
  CAR 
 Beta12Borophene !The name of the system 
      2.49397518    -26.66368940  301     -6.06124050      1.00000000
    -26.664  0.0000E+00  0.0000E+00  0.0000E+00  0.0000E+00
    -26.566  0.0000E+00  0.0000E+00  0.0000E+00  0.0000E+00
    -26.469  0.0000E+00  0.0000E+00  0.0000E+00  0.0000E+00
    -26.372  0.0000E+00  0.0000E+00  0.0000E+00  0.0000E+00
    -26.275  0.0000E+00  0.0000E+00  0.0000E+00  0.0000E+00
    -26.178 -0.6120E-32 -0.5387E-35 -0.5948E-33 -0.5235E-36
    -26.081 -0.2566E-25 -0.5060E-28 -0.2494E-26 -0.4918E-29
    -25.983 -0.1599E-19 -0.7075E-22 -0.1554E-20 -0.6877E-23
    -25.886 -0.1424E-14 -0.1409E-16 -0.1384E-15 -0.1369E-17
    -25.789 -0.1888E-10 -0.4284E-12 -0.1835E-11 -0.4164E-13
    -25.692 -0.3555E-07 -0.1853E-08 -0.3457E-08 -0.1801E-09
    -25.595 -0.8937E-05 -0.1107E-05 -0.8721E-06 -0.1078E-06
    -25.497 -0.2329E-03 -0.8052E-04 -0.2350E-04 -0.7934E-05
    -25.400  0.9807E-03 -0.2065E-03  0.7181E-04 -0.2800E-04
    -25.303  0.7279E-02  0.4924E-02  0.7793E-03  0.4506E-03
    -25.206  0.2622E-02  0.5793E-02  0.1034E-02  0.1014E-02
    -25.109 -0.3228E-03 -0.2343E-04  0.1003E-02  0.1011E-02
    -25.011 -0.2790E-04 -0.1149E-03  0.1000E-02  0.1000E-02
    -24.914 -0.1971E-06 -0.2083E-05  0.1000E-02  0.1000E-02
    -24.817 -0.1798E-09 -0.4448E-08  0.1000E-02  0.1000E-02
    -24.720 -0.2302E-13 -0.1302E-11  0.1000E-02  0.1000E-02
    -24.623  0.0000E+00 -0.5483E-16  0.1000E-02  0.1000E-02
    -24.525  0.0000E+00  0.0000E+00  0.1000E-02  0.1000E-02
    -24.428  0.0000E+00  0.0000E+00  0.1000E-02  0.1000E-02
    -24.331  0.0000E+00  0.0000E+00  0.1000E-02  0.1000E-02
    -24.234  0.0000E+00  0.0000E+00  0.1000E-02  0.1000E-02
    -24.137  0.0000E+00  0.0000E+00  0.1000E-02  0.1000E-02
    -24.039  0.0000E+00  0.0000E+00  0.1000E-02  0.1000E-02
    -23.942  0.0000E+00  0.0000E+00  0.1000E-02  0.1000E-02
    -23.845  0.0000E+00  0.0000E+00  0.1000E-02  0.1000E-02
    -23.748  0.0000E+00  0.0000E+00  0.1000E-02  0.1000E-02
    -23.651  0.0000E+00  0.0000E+00  0.1000E-02  0.1000E-02
    -23.554  0.0000E+00  0.0000E+00  0.1000E-02  0.1000E-02
    -23.456  0.0000E+00  0.0000E+00  0.1000E-02  0.1000E-02
    -23.359  0.0000E+00  0.0000E+00  0.1000E-02  0.1000E-02
    -23.262  0.0000E+00  0.0000E+00  0.1000E-02  0.1000E-02
    -23.165  0.0000E+00  0.0000E+00  0.1000E-02  0.1000E-02
    -23.068  0.0000E+00  0.0000E+00  0.1000E-02  0.1000E-02
    -22.970  0.0000E+00  0.0000E+00  0.1000E-02  0.1000E-02
    -22.873  0.0000E+00  0.0000E+00  0.1000E-02  0.1000E-02
    -22.776  0.0000E+00  0.0000E+00  0.1000E-02  0.1000E-02
    -22.679  0.0000E+00  0.0000E+00  0.1000E-02  0.1000E-02
    -22.582  0.0000E+00  0.0000E+00  0.1000E-02  0.1000E-02
    -22.484  0.0000E+00  0.0000E+00  0.1000E-02  0.1000E-02
    -22.387  0.0000E+00  0.0000E+00  0.1000E-02  0.1000E-02
    -22.290  0.0000E+00  0.0000E+00  0.1000E-02  0.1000E-02
    -22.193  0.0000E+00  0.0000E+00  0.1000E-02  0.1000E-02
    -22.096  0.0000E+00  0.0000E+00  0.1000E-02  0.1000E-02
    -21.998  0.0000E+00  0.0000E+00  0.1000E-02  0.1000E-02
    -21.901  0.0000E+00  0.0000E+00  0.1000E-02  0.1000E-02
    -21.804  0.0000E+00  0.0000E+00  0.1000E-02  0.1000E-02
    -21.707  0.0000E+00  0.0000E+00  0.1000E-02  0.1000E-02
    -21.610  0.0000E+00  0.0000E+00  0.1000E-02  0.1000E-02
    -21.513  0.0000E+00  0.0000E+00  0.1000E-02  0.1000E-02
    -21.415  0.0000E+00  0.0000E+00  0.1000E-02  0.1000E-02
    -21.318  0.0000E+00  0.0000E+00  0.1000E-02  0.1000E-02
    -21.221  0.0000E+00  0.0000E+00  0.1000E-02  0.1000E-02
    -21.124  0.0000E+00  0.0000E+00  0.1000E-02  0.1000E-02
    -21.027  0.0000E+00  0.0000E+00  0.1000E-02  0.1000E-02
    -20.929  0.0000E+00  0.0000E+00  0.1000E-02  0.1000E-02
    -20.832  0.0000E+00  0.0000E+00  0.1000E-02  0.1000E-02
    -20.735  0.0000E+00  0.0000E+00  0.1000E-02  0.1000E-02
    -20.638  0.0000E+00  0.0000E+00  0.1000E-02  0.1000E-02
    -20.541  0.0000E+00  0.0000E+00  0.1000E-02  0.1000E-02
    -20.443  0.0000E+00  0.0000E+00  0.1000E-02  0.1000E-02
    -20.346  0.0000E+00  0.0000E+00  0.1000E-02  0.1000E-02
    -20.249  0.0000E+00  0.0000E+00  0.1000E-02  0.1000E-02
    -20.152  0.0000E+00  0.0000E+00  0.1000E-02  0.1000E-02
    -20.055  0.0000E+00  0.0000E+00  0.1000E-02  0.1000E-02
    -19.957  0.0000E+00  0.0000E+00  0.1000E-02  0.1000E-02
    -19.860  0.0000E+00  0.0000E+00  0.1000E-02  0.1000E-02
    -19.763  0.0000E+00  0.0000E+00  0.1000E-02  0.1000E-02
    -19.666  0.0000E+00  0.0000E+00  0.1000E-02  0.1000E-02
    -19.569  0.0000E+00  0.0000E+00  0.1000E-02  0.1000E-02
    -19.471  0.0000E+00  0.0000E+00  0.1000E-02  0.1000E-02
    -19.374  0.0000E+00  0.0000E+00  0.1000E-02  0.1000E-02
    -19.277  0.0000E+00  0.0000E+00  0.1000E-02  0.1000E-02
    -19.180  0.0000E+00  0.0000E+00  0.1000E-02  0.1000E-02
    -19.083  0.0000E+00  0.0000E+00  0.1000E-02  0.1000E-02
    -18.986  0.0000E+00  0.0000E+00  0.1000E-02  0.1000E-02
    -18.888  0.0000E+00  0.0000E+00  0.1000E-02  0.1000E-02
    -18.791  0.0000E+00  0.0000E+00  0.1000E-02  0.1000E-02
    -18.694  0.0000E+00  0.0000E+00  0.1000E-02  0.1000E-02
    -18.597  0.0000E+00  0.0000E+00  0.1000E-02  0.1000E-02
    -18.500  0.0000E+00  0.0000E+00  0.1000E-02  0.1000E-02
    -18.402  0.0000E+00  0.0000E+00  0.1000E-02  0.1000E-02
    -18.305  0.0000E+00  0.0000E+00  0.1000E-02  0.1000E-02
    -18.208  0.0000E+00  0.0000E+00  0.1000E-02  0.1000E-02
    -18.111  0.0000E+00  0.0000E+00  0.1000E-02  0.1000E-02
    -18.014  0.0000E+00  0.0000E+00  0.1000E-02  0.1000E-02
    -17.916  0.0000E+00  0.0000E+00  0.1000E-02  0.1000E-02
    -17.819  0.0000E+00  0.0000E+00  0.1000E-02  0.1000E-02
    -17.722  0.0000E+00  0.0000E+00  0.1000E-02  0.1000E-02
    -17.625  0.0000E+00  0.0000E+00  0.1000E-02  0.1000E-02
    -17.528 -0.3464E-30 -0.5198E-31  0.1000E-02  0.1000E-02
    -17.430 -0.8971E-24 -0.1692E-24  0.1000E-02  0.1000E-02
    -17.333 -0.3448E-18 -0.8174E-19  0.1000E-02  0.1000E-02
    -17.236 -0.1885E-13 -0.5630E-14  0.1000E-02  0.1000E-02
    -17.139 -0.1531E-09 -0.5769E-10  0.1000E-02  0.1000E-02
    -17.042 -0.1747E-06 -0.8350E-07  0.1000E-02  0.1000E-02
    -16.944 -0.2580E-04 -0.1590E-04  0.9975E-03  0.9984E-03
    -16.847 -0.3196E-03 -0.2859E-03  0.9664E-03  0.9707E-03
    -16.750  0.2480E-02  0.1700E-02  0.1207E-02  0.1136E-02
    -16.653  0.7327E-02  0.7455E-02  0.1920E-02  0.1860E-02
    -16.556  0.1078E-02  0.1741E-02  0.2024E-02  0.2030E-02
    -16.459 -0.2413E-03 -0.2883E-03  0.2001E-02  0.2002E-02
    -16.361 -0.9773E-05 -0.1635E-04  0.2000E-02  0.2000E-02
    -16.264 -0.4053E-07 -0.8713E-07  0.2000E-02  0.2000E-02
    -16.167 -0.2240E-10 -0.6102E-10  0.2000E-02  0.2000E-02
    -16.070 -0.1756E-14 -0.6033E-14  0.2000E-02  0.2000E-02
    -15.973  0.0000E+00  0.0000E+00  0.2000E-02  0.2000E-02
    -15.875  0.0000E+00  0.0000E+00  0.2000E-02  0.2000E-02
    -15.778  0.0000E+00  0.0000E+00  0.2000E-02  0.2000E-02
    -15.681  0.0000E+00  0.0000E+00  0.2000E-02  0.2000E-02
    -15.584  0.0000E+00  0.0000E+00  0.2000E-02  0.2000E-02
    -15.487  0.0000E+00  0.0000E+00  0.2000E-02  0.2000E-02
    -15.389  0.0000E+00  0.0000E+00  0.2000E-02  0.2000E-02
    -15.292  0.0000E+00  0.0000E+00  0.2000E-02  0.2000E-02
    -15.195  0.0000E+00  0.0000E+00  0.2000E-02  0.2000E-02
    -15.098  0.0000E+00  0.0000E+00  0.2000E-02  0.2000E-02
    -15.001  0.0000E+00  0.0000E+00  0.2000E-02  0.2000E-02
    -14.903  0.0000E+00  0.0000E+00  0.2000E-02  0.2000E-02
    -14.806  0.0000E+00  0.0000E+00  0.2000E-02  0.2000E-02
    -14.709  0.0000E+00  0.0000E+00  0.2000E-02  0.2000E-02
    -14.612  0.0000E+00  0.0000E+00  0.2000E-02  0.2000E-02
    -14.515  0.0000E+00  0.0000E+00  0.2000E-02  0.2000E-02
    -14.417  0.0000E+00  0.0000E+00  0.2000E-02  0.2000E-02
    -14.320  0.0000E+00  0.0000E+00  0.2000E-02  0.2000E-02
    -14.223  0.0000E+00  0.0000E+00  0.2000E-02  0.2000E-02
    -14.126  0.0000E+00  0.0000E+00  0.2000E-02  0.2000E-02
    -14.029  0.0000E+00  0.0000E+00  0.2000E-02  0.2000E-02
    -13.932  0.0000E+00  0.0000E+00  0.2000E-02  0.2000E-02
    -13.834  0.0000E+00  0.0000E+00  0.2000E-02  0.2000E-02
    -13.737  0.0000E+00  0.0000E+00  0.2000E-02  0.2000E-02
    -13.640  0.0000E+00  0.0000E+00  0.2000E-02  0.2000E-02
    -13.543  0.0000E+00  0.0000E+00  0.2000E-02  0.2000E-02
    -13.446  0.0000E+00  0.0000E+00  0.2000E-02  0.2000E-02
    -13.348  0.0000E+00  0.0000E+00  0.2000E-02  0.2000E-02
    -13.251 -0.4179E-36  0.0000E+00  0.2000E-02  0.2000E-02
    -13.154 -0.5213E-29 -0.4513E-30  0.2000E-02  0.2000E-02
    -13.057 -0.9685E-23 -0.1132E-23  0.2000E-02  0.2000E-02
    -12.960 -0.2668E-17 -0.4213E-18  0.2000E-02  0.2000E-02
    -12.862 -0.1041E-12 -0.2229E-13  0.2000E-02  0.2000E-02
    -12.765 -0.6022E-09 -0.1752E-09  0.2000E-02  0.2000E-02
    -12.668 -0.4853E-06 -0.1933E-06  0.2000E-02  0.2000E-02
    -12.571 -0.4919E-04 -0.2755E-04  0.1995E-02  0.1997E-02
    -12.474 -0.3110E-03 -0.3223E-03  0.1965E-02  0.1966E-02
    -12.376  0.3774E-02  0.2599E-02  0.2332E-02  0.2219E-02
    -12.279  0.6686E-02  0.7288E-02  0.2982E-02  0.2927E-02
    -12.182  0.3629E-03  0.9961E-03  0.3017E-02  0.3024E-02
    -12.085 -0.1687E-03 -0.2342E-03  0.3000E-02  0.3001E-02
    -11.988 -0.4368E-05 -0.9067E-05  0.3000E-02  0.3000E-02
    -11.890 -0.1264E-07 -0.3631E-07  0.3000E-02  0.3000E-02
    -11.793 -0.4956E-11 -0.1941E-10  0.3000E-02  0.3000E-02
    -11.696 -0.2764E-15 -0.1472E-14  0.3000E-02  0.3000E-02
    -11.599  0.0000E+00  0.0000E+00  0.3000E-02  0.3000E-02
    -11.502  0.0000E+00  0.0000E+00  0.3000E-02  0.3000E-02
    -11.405  0.0000E+00  0.0000E+00  0.3000E-02  0.3000E-02
    -11.307 -0.3223E-30 -0.2742E-32  0.3000E-02  0.3000E-02
    -11.210 -0.8421E-24 -0.1263E-25  0.3000E-02  0.3000E-02
    -11.113 -0.3266E-18 -0.8649E-20  0.3000E-02  0.3000E-02
    -11.016 -0.1801E-13 -0.8472E-15  0.3000E-02  0.3000E-02
    -10.919 -0.1475E-09 -0.1236E-10  0.3000E-02  0.3000E-02
    -10.821 -0.1699E-06 -0.2566E-07  0.3000E-02  0.3000E-02
    -10.724 -0.2534E-04 -0.7145E-05  0.2998E-02  0.2999E-02
    -10.627 -0.3187E-03 -0.2119E-03  0.2967E-02  0.2979E-02
    -10.530  0.2448E-02  0.7573E-03  0.3204E-02  0.3052E-02
    -10.433  0.7312E-02  0.7114E-02  0.3915E-02  0.3744E-02
    -10.335  0.7831E-03  0.2684E-02  0.3991E-02  0.4005E-02
    -10.238  0.2181E-02  0.1543E-02  0.4203E-02  0.4155E-02
    -10.141  0.7334E-02  0.7416E-02  0.4916E-02  0.4875E-02
    -10.044  0.1119E-02  0.1575E-02  0.5025E-02  0.5028E-02
     -9.947 -0.2447E-03 -0.2783E-03  0.5001E-02  0.5001E-02
     -9.849 -0.1013E-04 -0.1456E-04  0.5000E-02  0.5000E-02
     -9.752 -0.4271E-07 -0.7319E-07  0.5000E-02  0.5000E-02
     -9.655 -0.2398E-10 -0.4852E-10  0.5000E-02  0.5000E-02
     -9.558 -0.1909E-14 -0.4547E-14  0.5000E-02  0.5000E-02
     -9.461  0.0000E+00  0.0000E+00  0.5000E-02  0.5000E-02
     -9.363  0.0000E+00  0.0000E+00  0.5000E-02  0.5000E-02
     -9.266  0.0000E+00  0.0000E+00  0.5000E-02  0.5000E-02
     -9.169  0.0000E+00  0.0000E+00  0.5000E-02  0.5000E-02
     -9.072  0.0000E+00  0.0000E+00  0.5000E-02  0.5000E-02
     -8.975  0.0000E+00  0.0000E+00  0.5000E-02  0.5000E-02
     -8.878  0.0000E+00  0.0000E+00  0.5000E-02  0.5000E-02
     -8.780  0.0000E+00  0.0000E+00  0.5000E-02  0.5000E-02
     -8.683 -0.3023E-29 -0.1931E-30  0.5000E-02  0.5000E-02
     -8.586 -0.6007E-23 -0.5367E-24  0.5000E-02  0.5000E-02
     -8.489 -0.1771E-17 -0.2215E-18  0.5000E-02  0.5000E-02
     -8.392 -0.7397E-13 -0.1300E-13  0.5000E-02  0.5000E-02
     -8.294 -0.4584E-09 -0.1135E-09  0.5000E-02  0.5000E-02
     -8.197 -0.3965E-06 -0.1394E-06  0.5000E-02  0.5000E-02
     -8.100 -0.4341E-04 -0.2229E-04  0.4996E-02  0.4998E-02
     -8.003 -0.3206E-03 -0.3115E-03  0.4965E-02  0.4968E-02
     -7.906  0.3502E-02  0.2227E-02  0.5305E-02  0.5184E-02
     -7.808  0.6855E-02  0.7395E-02  0.5971E-02  0.5903E-02
     -7.711  0.4840E-03  0.1269E-02  0.6018E-02  0.6026E-02
     -7.614 -0.1829E-03 -0.2567E-03  0.6001E-02  0.6001E-02
     -7.517 -0.5170E-05 -0.1150E-04  0.6000E-02  0.6000E-02
     -7.420 -0.1609E-07 -0.5153E-07  0.6000E-02  0.6000E-02
     -7.322 -0.6761E-11 -0.3064E-10  0.6000E-02  0.6000E-02
     -7.225 -0.4036E-15 -0.2581E-14  0.6000E-02  0.6000E-02
     -7.128  0.0000E+00  0.0000E+00  0.6000E-02  0.6000E-02
     -7.031 -0.1010E-29 -0.4941E-36  0.6000E-02  0.6000E-02
     -6.934 -0.2297E-23 -0.6051E-29  0.6000E-02  0.6000E-02
     -6.836 -0.7747E-18 -0.1104E-22  0.6000E-02  0.6000E-02
     -6.739 -0.3710E-13 -0.2985E-17  0.6000E-02  0.6000E-02
     -6.642 -0.2638E-09 -0.1143E-12  0.6000E-02  0.6000E-02
     -6.545 -0.2627E-06 -0.6487E-09  0.6000E-02  0.6000E-02
     -6.448 -0.3352E-04 -0.5128E-06  0.5997E-02  0.6000E-02
     -6.351 -0.3268E-03 -0.5088E-04  0.5965E-02  0.5995E-02
     -6.253  0.2971E-02 -0.3075E-03  0.6254E-02  0.5965E-02
     -6.156  0.7136E-02  0.3849E-02  0.6947E-02  0.6339E-02
     -6.059  0.7622E-03  0.6636E-02  0.7021E-02  0.6984E-02
     -5.962 -0.2124E-03  0.3318E-03  0.7001E-02  0.7016E-02
     -5.865 -0.7182E-05 -0.1649E-03  0.7000E-02  0.7000E-02
     -5.767 -0.2585E-07 -0.4168E-05  0.7000E-02  0.7000E-02
     -5.670 -0.1248E-10 -0.1183E-07  0.7000E-02  0.7000E-02
     -5.573 -0.8572E-15 -0.4549E-11  0.7000E-02  0.7000E-02
     -5.476  0.0000E+00 -0.2495E-15  0.7000E-02  0.7000E-02
     -5.379  0.0000E+00  0.0000E+00  0.7000E-02  0.7000E-02
     -5.281  0.0000E+00  0.0000E+00  0.7000E-02  0.7000E-02
     -5.184  0.0000E+00  0.0000E+00  0.7000E-02  0.7000E-02
     -5.087  0.0000E+00  0.0000E+00  0.7000E-02  0.7000E-02
     -4.990  0.0000E+00  0.0000E+00  0.7000E-02  0.7000E-02
     -4.893  0.0000E+00  0.0000E+00  0.7000E-02  0.7000E-02
     -4.795  0.0000E+00  0.0000E+00  0.7000E-02  0.7000E-02
     -4.698  0.0000E+00  0.0000E+00  0.7000E-02  0.7000E-02
     -4.601  0.0000E+00  0.0000E+00  0.7000E-02  0.7000E-02
     -4.504  0.0000E+00  0.0000E+00  0.7000E-02  0.7000E-02
     -4.407  0.0000E+00  0.0000E+00  0.7000E-02  0.7000E-02
     -4.309  0.0000E+00  0.0000E+00  0.7000E-02  0.7000E-02
     -4.212  0.0000E+00  0.0000E+00  0.7000E-02  0.7000E-02
     -4.115  0.0000E+00  0.0000E+00  0.7000E-02  0.7000E-02
     -4.018  0.0000E+00  0.0000E+00  0.7000E-02  0.7000E-02
     -3.921  0.0000E+00  0.0000E+00  0.7000E-02  0.7000E-02
     -3.824  0.0000E+00  0.0000E+00  0.7000E-02  0.7000E-02
     -3.726  0.0000E+00  0.0000E+00  0.7000E-02  0.7000E-02
     -3.629  0.0000E+00  0.0000E+00  0.7000E-02  0.7000E-02
     -3.532  0.0000E+00  0.0000E+00  0.7000E-02  0.7000E-02
     -3.435  0.0000E+00  0.0000E+00  0.7000E-02  0.7000E-02
     -3.338  0.0000E+00  0.0000E+00  0.7000E-02  0.7000E-02
     -3.240  0.0000E+00  0.0000E+00  0.7000E-02  0.7000E-02
     -3.143  0.0000E+00  0.0000E+00  0.7000E-02  0.7000E-02
     -3.046  0.0000E+00  0.0000E+00  0.7000E-02  0.7000E-02
     -2.949  0.0000E+00  0.0000E+00  0.7000E-02  0.7000E-02
     -2.852  0.0000E+00  0.0000E+00  0.7000E-02  0.7000E-02
     -2.754  0.0000E+00  0.0000E+00  0.7000E-02  0.7000E-02
     -2.657  0.0000E+00  0.0000E+00  0.7000E-02  0.7000E-02
     -2.560  0.0000E+00  0.0000E+00  0.7000E-02  0.7000E-02
     -2.463  0.0000E+00  0.0000E+00  0.7000E-02  0.7000E-02
     -2.366  0.0000E+00  0.0000E+00  0.7000E-02  0.7000E-02
     -2.268  0.0000E+00  0.0000E+00  0.7000E-02  0.7000E-02
     -2.171  0.0000E+00  0.0000E+00  0.7000E-02  0.7000E-02
     -2.074  0.0000E+00  0.0000E+00  0.7000E-02  0.7000E-02
     -1.977  0.0000E+00  0.0000E+00  0.7000E-02  0.7000E-02
     -1.880  0.0000E+00  0.0000E+00  0.7000E-02  0.7000E-02
     -1.782  0.0000E+00  0.0000E+00  0.7000E-02  0.7000E-02
     -1.685  0.0000E+00  0.0000E+00  0.7000E-02  0.7000E-02
     -1.588 -0.3671E-37  0.0000E+00  0.7000E-02  0.7000E-02
     -1.491 -0.4738E-30 -0.2632E-30  0.7000E-02  0.7000E-02
     -1.394 -0.9104E-24 -0.5442E-24  0.7000E-02  0.7000E-02
     -1.297 -0.2614E-18 -0.1682E-18  0.7000E-02  0.7000E-02
     -1.199 -0.1080E-13 -0.7489E-14  0.7000E-02  0.7000E-02
     -1.102 -0.6829E-10 -0.5105E-10  0.7000E-02  0.7000E-02
     -1.005 -0.6440E-07 -0.5195E-07  0.7000E-02  0.7000E-02
     -0.908 -0.8964E-05 -0.7809E-05  0.6999E-02  0.6999E-02
     -0.811 -0.1556E-03 -0.1484E-03  0.6984E-02  0.6985E-02
     -0.713  0.6291E-03  0.5332E-03  0.7045E-02  0.7037E-02
     -0.616  0.5810E-02  0.5678E-02  0.7610E-02  0.7588E-02
     -0.519  0.4199E-02  0.4392E-02  0.8018E-02  0.8015E-02
     -0.422 -0.1046E-03 -0.7103E-04  0.8008E-02  0.8008E-02
     -0.325 -0.7882E-04 -0.8538E-04  0.8000E-02  0.8000E-02
     -0.227 -0.3952E-04 -0.3226E-04  0.7996E-02  0.7997E-02
     -0.130 -0.1897E-03 -0.1991E-03  0.7978E-02  0.7978E-02
     -0.033  0.2426E-02  0.2068E-02  0.8214E-02  0.8179E-02
      0.064  0.6316E-02  0.6279E-02  0.8827E-02  0.8789E-02
      0.161  0.1999E-02  0.2311E-02  0.9022E-02  0.9014E-02
      0.259  0.1594E-02  0.1113E-02  0.9177E-02  0.9122E-02
      0.356  0.5172E-02  0.4503E-02  0.9679E-02  0.9559E-02
      0.453  0.6148E-02  0.6364E-02  0.1028E-01  0.1018E-01
      0.550  0.4127E-02  0.4710E-02  0.1068E-01  0.1064E-01
      0.647  0.1716E-02  0.1651E-02  0.1084E-01  0.1080E-01
      0.745  0.5629E-02  0.4676E-02  0.1139E-01  0.1125E-01
      0.842  0.7312E-02  0.7014E-02  0.1210E-01  0.1193E-01
      0.939  0.9770E-02  0.9142E-02  0.1305E-01  0.1282E-01
      1.036  0.5772E-02  0.7567E-02  0.1361E-01  0.1356E-01
      1.133  0.1954E-02  0.2432E-02  0.1380E-01  0.1379E-01
      1.230  0.1961E-02  0.2029E-02  0.1399E-01  0.1399E-01
      1.328  0.1219E-03  0.1678E-03  0.1401E-01  0.1401E-01
      1.425 -0.5468E-04 -0.6180E-04  0.1400E-01  0.1400E-01
      1.522 -0.1644E-05 -0.2052E-05  0.1400E-01  0.1400E-01
      1.619 -0.5623E-08 -0.7614E-08  0.1400E-01  0.1400E-01
      1.716 -0.2637E-11 -0.3866E-11  0.1400E-01  0.1400E-01
      1.814 -0.1777E-15 -0.2818E-15  0.1400E-01  0.1400E-01
      1.911  0.0000E+00  0.0000E+00  0.1400E-01  0.1400E-01
      2.008  0.0000E+00  0.0000E+00  0.1400E-01  0.1400E-01
      2.105  0.0000E+00  0.0000E+00  0.1400E-01  0.1400E-01
      2.202  0.0000E+00  0.0000E+00  0.1400E-01  0.1400E-01
      2.300  0.0000E+00  0.0000E+00  0.1400E-01  0.1400E-01
      2.397  0.0000E+00  0.0000E+00  0.1400E-01  0.1400E-01
      2.494  0.0000E+00  0.0000E+00  0.1400E-01  0.1400E-01
