    6    6 1000    2
  0.2987040E+03  0.1016000E-08  0.1176000E-08  0.1500000E-08  0.5000000E-15
  1.000000000000000E-004
  CAR 
 Beta12Borophene !The name of the system 
   14    9   14
 
  0.0000000E+00  0.0000000E+00  0.2500000E+00  0.1111111E+00
   1      -25.338341    -25.297159
   2      -16.712802    -16.701161
   3      -12.356093    -12.340787
   4      -10.492053    -10.463119
   5      -10.200146    -10.191979
   6       -7.881853     -7.864740
   7       -6.222680     -6.136727
   8       -0.691708     -0.688004
   9        0.019707      0.031283
  10        0.326692      0.352810
  11        0.653098      0.659848
  12        0.734139      0.751149
  13        0.893920      0.907809
  14        1.124395      1.133924
 
  0.3333333E+00  0.0000000E+00  0.2500000E+00  0.1111111E+00
   1      -25.338338    -25.297155
   2      -16.712801    -16.701160
   3      -12.356092    -12.340786
   4      -10.492054    -10.463120
   5      -10.200139    -10.191972
   6       -7.881805     -7.864690
   7       -6.222694     -6.136742
   8       -0.631515     -0.628306
   9       -0.036416     -0.030226
  10        0.306873      0.330783
  11        0.729970      0.739345
  12        0.780408      0.795143
  13        0.863608      0.891309
  14        0.994494      1.012889
 
 -0.3333333E+00  0.0000000E+00  0.2500000E+00  0.1111111E+00
   1      -25.338339    -25.297157
   2      -16.712804    -16.701163
   3      -12.356091    -12.340785
   4      -10.492056    -10.463121
   5      -10.200139    -10.191972
   6       -7.881803     -7.864688
   7       -6.222694     -6.136742
   8       -0.632129     -0.628893
   9       -0.043041     -0.035797
  10        0.382862      0.400930
  11        0.579286      0.607043
  12        0.764358      0.770493
  13        0.888715      0.914296
  14        1.031545      1.044704
 
  0.0000000E+00  0.3333333E+00  0.2500000E+00  0.1111111E+00
   1      -25.338319    -25.297136
   2      -16.712804    -16.701162
   3      -12.356095    -12.340789
   4      -10.492053    -10.463119
   5      -10.200139    -10.191973
   6       -7.881856     -7.864743
   7       -6.222671     -6.136718
   8       -0.657723     -0.654790
   9        0.060297      0.070842
  10        0.245746      0.260390
  11        0.445015      0.468580
  12        0.734396      0.760744
  13        0.893525      0.911897
  14        1.164503      1.168627
 
  0.3333333E+00  0.3333333E+00  0.2500000E+00  0.1111111E+00
   1      -25.338326    -25.297144
   2      -16.712795    -16.701153
   3      -12.356094    -12.340789
   4      -10.492051    -10.463116
   5      -10.200135    -10.191969
   6       -7.881793     -7.864679
   7       -6.222689     -6.136737
   8       -0.603981     -0.601272
   9        0.011845      0.016797
  10        0.324771      0.342797
  11        0.456688      0.471007
  12        0.803463      0.830744
  13        0.885825      0.909724
  14        0.951187      0.974113
 
 -0.3333333E+00  0.3333333E+00  0.2500000E+00  0.1111111E+00
   1      -25.338327    -25.297144
   2      -16.712794    -16.701153
   3      -12.356092    -12.340786
   4      -10.492052    -10.463118
   5      -10.200136    -10.191969
   6       -7.881794     -7.864680
   7       -6.222692     -6.136740
   8       -0.605130     -0.602375
   9        0.003129      0.009005
  10        0.368424      0.382959
  11        0.482939      0.496408
  12        0.683403      0.711578
  13        0.910598      0.941986
  14        0.961206      0.979611
 
  0.0000000E+00 -0.3333333E+00  0.2500000E+00  0.1111111E+00
   1      -25.338323    -25.297140
   2      -16.712798    -16.701156
   3      -12.356096    -12.340791
   4      -10.492052    -10.463118
   5      -10.200139    -10.191973
   6       -7.881852     -7.864738
   7       -6.222670     -6.136716
   8       -0.657680     -0.654748
   9        0.069717      0.078743
  10        0.214445      0.233109
  11        0.484095      0.503629
  12        0.720385      0.747661
  13        0.890384      0.909823
  14        1.161732      1.166071
 
  0.3333333E+00 -0.3333333E+00  0.2500000E+00  0.1111111E+00
   1      -25.338325    -25.297142
   2      -16.712798    -16.701157
   3      -12.356091    -12.340786
   4      -10.492053    -10.463119
   5      -10.200133    -10.191967
   6       -7.881794     -7.864680
   7       -6.222691     -6.136739
   8       -0.604557     -0.601823
   9        0.008035      0.013115
  10        0.349994      0.367827
  11        0.441180      0.456196
  12        0.803618      0.828714
  13        0.874816      0.896685
  14        0.947471      0.974426
 
 -0.3333333E+00 -0.3333333E+00  0.2500000E+00  0.1111111E+00
   1      -25.338327    -25.297144
   2      -16.712798    -16.701157
   3      -12.356095    -12.340789
   4      -10.492051    -10.463116
   5      -10.200137    -10.191971
   6       -7.881797     -7.864683
   7       -6.222690     -6.136738
   8       -0.604493     -0.601762
   9        0.008008      0.013562
  10        0.340393      0.356525
  11        0.481729      0.494879
  12        0.727638      0.755446
  13        0.897298      0.926207
  14        0.956124      0.977035
