 vasp.5.3.3 18Dez12 (build Aug 26 2015 16:06:49) complex                        
  
 executed on             LinuxIFC date 2020.05.04  00:35:28
 running on    4 total cores
 distrk:  each k-point on    4 cores,    1 groups
 distr:  one band on NCORES_PER_BAND=   4 cores,    1 groups


--------------------------------------------------------------------------------------------------------


 INCAR:
 POTCAR:    PAW_PBE C 08Apr2002                   
 POTCAR:    PAW_PBE O 08Apr2002                   
 POTCAR:    PAW_PBE H 15Jun2001                   
 POTCAR:    PAW_PBE C 08Apr2002                   
   SHA256 =  253f7b50bb8d59471dbedb8285d89021f4a42ed1a2c5d38a03a736e69125dd95 C/
   COPYR  = (c) Copyright 08Apr2002 Georg Kresse                                
   COPYR  = This file is part of the software VASP. Any use, copying, and all ot
   COPYR  = If you do not have a valid VASP license, you may not use, copy or di
   VRHFIN =C: s2p2                                                              
   LEXCH  = PE                                                                  
   EATOM  =   147.1560 eV,   10.8157 Ry                                         
                                                                                
   TITEL  = PAW_PBE C 08Apr2002                                                 
   LULTRA =        F    use ultrasoft PP ?                                      
   IUNSCR =        1    unscreen: 0-lin 1-nonlin 2-no                           
   RPACOR =    1.200    partial core radius                                     
   POMASS =   12.011; ZVAL   =    4.000    mass and valenz                      
   RCORE  =    1.500    outmost cutoff radius                                   
   RWIGS  =    1.630; RWIGS  =    0.863    wigner-seitz radius (au A)           
   ENMAX  =  400.000; ENMIN  =  300.000 eV                                      
   ICORE  =        2    local potential                                         
   LCOR   =        T    correct aug charges                                     
   LPAW   =        T    paw PP                                                  
   EAUG   =  644.873                                                            
   DEXC   =    0.000                                                            
   RMAX   =    1.529    core radius for proj-oper                               
   RAUG   =    1.300    factor for augmentation sphere                          
   RDEP   =    1.501    radius for radial grids                                 
   RDEPT  =    1.300    core radius for aug-charge                              
                                                                                
   Atomic configuration                                                         
    4 entries                                                                   
     n  l   j            E        occ.                                          
     1  0  0.50      -273.3789   2.0000                                         
     2  0  0.50       -13.7508   2.0000                                         
     2  1  0.50        -5.2854   2.0000                                         
     3  2  1.50        -5.4423   0.0000                                         
   Description                                                                  
     l       E           TYP  RCUT    TYP  RCUT                                 
     0    -13.7508458     23  1.200                                             
     0     -8.2022199     23  1.200                                             
     1     -5.2854383     23  1.500                                             
     1     34.0145650     23  1.500                                             
     2     -5.4423304      7  1.500                                             
  local pseudopotential read in
  partial core-charges read in
  partial kinetic energy density read in
  atomic valenz-charges read in
  non local Contribution for L=           0  read in
    real space projection operators read in
  non local Contribution for L=           0  read in
    real space projection operators read in
  non local Contribution for L=           1  read in
    real space projection operators read in
  non local Contribution for L=           1  read in
    real space projection operators read in
    PAW grid and wavefunctions read in
 
   number of l-projection  operators is LMAX  =           4
   number of lm-projection operators is LMMAX =           8
 
 POTCAR:    PAW_PBE O 08Apr2002                   
   SHA256 =  818f92134a0a090dccd8ba1447fa70422a3b330e708bb4f08108d8ae51209ddf O/
   COPYR  = (c) Copyright 08Apr2002 Georg Kresse                                
   COPYR  = This file is part of the software VASP. Any use, copying, and all ot
   COPYR  = If you do not have a valid VASP license, you may not use, copy or di
   VRHFIN =O: s2p4                                                              
   LEXCH  = PE                                                                  
   EATOM  =   432.3788 eV,   31.7789 Ry                                         
                                                                                
   TITEL  = PAW_PBE O 08Apr2002                                                 
   LULTRA =        F    use ultrasoft PP ?                                      
   IUNSCR =        1    unscreen: 0-lin 1-nonlin 2-no                           
   RPACOR =    1.200    partial core radius                                     
   POMASS =   16.000; ZVAL   =    6.000    mass and valenz                      
   RCORE  =    1.520    outmost cutoff radius                                   
   RWIGS  =    1.550; RWIGS  =    0.820    wigner-seitz radius (au A)           
   ENMAX  =  400.000; ENMIN  =  300.000 eV                                      
   ICORE  =        2    local potential                                         
   LCOR   =        T    correct aug charges                                     
   LPAW   =        T    paw PP                                                  
   EAUG   =  605.392                                                            
   DEXC   =    0.000                                                            
   RMAX   =    1.553    core radius for proj-oper                               
   RAUG   =    1.300    factor for augmentation sphere                          
   RDEP   =    1.550    radius for radial grids                                 
   RDEPT  =    1.329    core radius for aug-charge                              
                                                                                
   Atomic configuration                                                         
    4 entries                                                                   
     n  l   j            E        occ.                                          
     1  0  0.50      -514.6923   2.0000                                         
     2  0  0.50       -23.9615   2.0000                                         
     2  1  0.50        -9.0305   4.0000                                         
     3  2  1.50        -9.5241   0.0000                                         
   Description                                                                  
     l       E           TYP  RCUT    TYP  RCUT                                 
     0    -23.9615318     23  1.200                                             
     0     -9.5240782     23  1.200                                             
     1     -9.0304911     23  1.520                                             
     1      8.1634956     23  1.520                                             
     2     -9.5240782      7  1.500                                             
  local pseudopotential read in
  partial core-charges read in
  partial kinetic energy density read in
  kinetic energy density of atom read in
  atomic valenz-charges read in
  non local Contribution for L=           0  read in
    real space projection operators read in
  non local Contribution for L=           0  read in
    real space projection operators read in
  non local Contribution for L=           1  read in
    real space projection operators read in
  non local Contribution for L=           1  read in
    real space projection operators read in
    PAW grid and wavefunctions read in
 
   number of l-projection  operators is LMAX  =           4
   number of lm-projection operators is LMMAX =           8
 
 POTCAR:    PAW_PBE H 15Jun2001                   
   SHA256 =  030f79b5d3ab3cf0e668861823c8fb652ff669f3e15e46930bd03bfd63a607b6 H/
   COPYR  = (c) Copyright 15Jun2001 Georg Kresse                                
   COPYR  = This file is part of the software VASP. Any use, copying, and all ot
   COPYR  = If you do not have a valid VASP license, you may not use, copy or di
   VRHFIN =H: ultrasoft test                                                    
   LEXCH  = PE                                                                  
   EATOM  =    12.4884 eV,    0.9179 Ry                                         
                                                                                
   TITEL  = PAW_PBE H 15Jun2001                                                 
   LULTRA =        F    use ultrasoft PP ?                                      
   IUNSCR =        0    unscreen: 0-lin 1-nonlin 2-no                           
   RPACOR =    0.000    partial core radius                                     
   POMASS =    1.000; ZVAL   =    1.000    mass and valenz                      
   RCORE  =    1.100    outmost cutoff radius                                   
   RWIGS  =    0.700; RWIGS  =    0.370    wigner-seitz radius (au A)           
   ENMAX  =  250.000; ENMIN  =  200.000 eV                                      
   RCLOC  =    0.701    cutoff for local pot                                    
   LCOR   =        T    correct aug charges                                     
   LPAW   =        T    paw PP                                                  
   EAUG   =  400.000                                                            
   RMAX   =    1.123    core radius for proj-oper                               
   RAUG   =    1.200    factor for augmentation sphere                          
   RDEP   =    1.112    radius for radial grids                                 
   RDEPT  =    0.926    core radius for aug-charge                              
                                                                                
   Atomic configuration                                                         
    2 entries                                                                   
     n  l   j            E        occ.                                          
     1  0  0.50        -6.4927   1.0000                                         
     2  1  0.50        -3.4015   0.0000                                         
   Description                                                                  
     l       E           TYP  RCUT    TYP  RCUT                                 
     0     -6.4927494     23  1.100                                             
     0      6.8029130     23  1.100                                             
     1     -4.0817478     23  1.100                                             
  local pseudopotential read in
  atomic valenz-charges read in
  non local Contribution for L=           0  read in
    real space projection operators read in
  non local Contribution for L=           0  read in
    real space projection operators read in
  non local Contribution for L=           1  read in
    real space projection operators read in
    PAW grid and wavefunctions read in
 
   number of l-projection  operators is LMAX  =           3
   number of lm-projection operators is LMMAX =           5
 

 ----------------------------------------------------------------------------- 
|                                                                             |
|  ADVICE TO THIS USER RUNNING 'VASP/VAMP'   (HEAR YOUR MASTER'S VOICE ...):  |
|                                                                             |
|      You have a (more or less) 'small supercell' and for smaller cells      |
|      it is recommended  to use the reciprocal-space projection scheme!      |
|      The real space optimization is not  efficient for small cells and it   |
|      is also less accurate ...                                              |
|      Therefore set LREAL=.FALSE. in the  INCAR file                         |
|                                                                             |
 ----------------------------------------------------------------------------- 

 Optimization of the real space projectors (new method)

 maximal supplied QI-value         = 25.13
 optimisation between [QCUT,QGAM] = [ 11.31, 22.87] = [ 35.82,146.48] Ry 
 Optimized for a Real-space Cutoff    1.00 Angstroem

   l    n(q)    QCUT    max X(q) W(low)/X(q) W(high)/X(q)  e(spline) 
   0      7    11.310   115.676    0.43E-03    0.13E-02    0.19E-06
   0      7    11.310    87.132    0.43E-03    0.13E-02    0.18E-06
   1      6    11.310     4.429    0.42E-03    0.74E-03    0.11E-06
   1      6    11.310     2.733    0.34E-03    0.55E-03    0.92E-07
 Optimization of the real space projectors (new method)

 maximal supplied QI-value         = 24.76
 optimisation between [QCUT,QGAM] = [ 11.39, 22.77] = [ 36.31,145.25] Ry 
 Optimized for a Real-space Cutoff    1.00 Angstroem

   l    n(q)    QCUT    max X(q) W(low)/X(q) W(high)/X(q)  e(spline) 
   0      7    11.387    20.381    0.39E-03    0.13E-02    0.15E-06
   0      7    11.387    15.268    0.42E-03    0.14E-02    0.17E-06
   1      6    11.387     5.964    0.41E-03    0.11E-02    0.17E-06
   1      6    11.387     5.382    0.39E-03    0.87E-03    0.15E-06
 Optimization of the real space projectors (new method)

 maximal supplied QI-value         = 34.20
 optimisation between [QCUT,QGAM] = [ 11.29, 22.57] = [ 35.68,142.71] Ry 
 Optimized for a Real-space Cutoff    1.16 Angstroem

   l    n(q)    QCUT    max X(q) W(low)/X(q) W(high)/X(q)  e(spline) 
   0      8    11.287    19.460    0.40E-03    0.73E-03    0.16E-06
   0      8    11.287    12.209    0.38E-03    0.70E-03    0.15E-06
   1      7    11.287     4.655    0.22E-03    0.25E-04    0.22E-06
  PAW_PBE C 08Apr2002                   :
 energy of atom  1       EATOM= -147.1560
 kinetic energy error for atom=    0.0076 (will be added to EATOM!!)
  PAW_PBE O 08Apr2002                   :
 energy of atom  2       EATOM= -432.3788
 kinetic energy error for atom=    0.0224 (will be added to EATOM!!)
  PAW_PBE H 15Jun2001                   :
 energy of atom  3       EATOM=  -12.4884
 kinetic energy error for atom=    0.0020 (will be added to EATOM!!)
 
 
 POSCAR: MoleculeAdsorption                      
  positions in direct lattice
  velocities in cartesian coordinates
  No initial velocities read in
 exchange correlation table for  LEXCH =        8
   RHO(1)=    0.500       N(1)  =     2000
   RHO(2)=  100.500       N(2)  =     4000
 


--------------------------------------------------------------------------------------------------------


 ion  position               nearest neighbor table
   1  0.130  0.980  0.974-   5 1.11   4 1.11   3 1.11   2 1.40
   2  0.000  0.000  0.000-   6 0.99   1 1.40
   3  0.164  0.896  0.999-   1 1.11
   4  0.195  0.050  0.999-   1 1.11
   5  0.136  0.979  0.900-   1 1.11
   6  0.000  0.000  0.066-   2 0.99
 
  LATTYP: Found a simple orthorhombic cell.
 ALAT       =    10.1600000000
 B/A-ratio  =     1.1574803150
 C/A-ratio  =     1.4763779528
  
  Lattice vectors:
  
 A1 = (  10.1600000000,   0.0000000000,   0.0000000000)
 A2 = (   0.0000000000,  11.7600000000,   0.0000000000)
 A3 = (   0.0000000000,   0.0000000000,  15.0000000000)


Analysis of symmetry for initial positions (statically):
=====================================================================
 Subroutine PRICEL returns:
 Original cell was already a primitive cell.
 

 Routine SETGRP: Setting up the symmetry group for a 
 simple orthorhombic supercell.


 Subroutine GETGRP returns: Found  1 space group operations
 (whereof  1 operations were pure point group operations)
 out of a pool of  8 trial point group operations.


The static configuration has the point symmetry C_1 .


Analysis of symmetry for dynamics (positions and initial velocities):
=====================================================================
 Subroutine PRICEL returns:
 Original cell was already a primitive cell.
 

 Routine SETGRP: Setting up the symmetry group for a 
 simple orthorhombic supercell.


 Subroutine GETGRP returns: Found  1 space group operations
 (whereof  1 operations were pure point group operations)
 out of a pool of  8 trial point group operations.


The dynamic configuration has the point symmetry C_1 .


Analysis of magnetic symmetry:
=====================================================================

 Subroutine MAGSYM returns: Found  1 space group operations
 (whereof  1 operations were pure point group operations)
 out of a pool of  1 trial space group operations
 (whereof  1 operations were pure point group operations)
 and found also     1 'primitive' translations


The magnetic configuration has the point symmetry C_1 .


 irot  :   1
 --------------------------------------------------------------------
 isymop:   1   0   0
           0   1   0
           0   0   1

 gtrans:     0.0000000     0.0000000     0.0000000

 ptrans:     0.0000000     0.0000000     0.0000000
 rotmap:
 (   1->   1)  (   2->   2)  (   3->   3)  (   4->   4)  (   5->   5) 
 (   6->   6) 
 
 
 KPOINTS: K-Points                                

Automatic generation of k-mesh.
Space group operators:
 irot       det(A)        alpha          n_x          n_y          n_z        tau_x        tau_y        tau_z
    1     1.000000     0.000000     1.000000     0.000000     0.000000     0.000000     0.000000     0.000000
 
 Subroutine IBZKPT returns following result:
 ===========================================
 
 Found      9 irreducible k-points:
 
 Following reciprocal coordinates:
            Coordinates               Weight
  0.000000  0.000000  0.250000      2.000000
  0.333333  0.000000  0.250000      2.000000
 -0.333333  0.000000  0.250000      2.000000
  0.000000  0.333333  0.250000      2.000000
  0.333333  0.333333  0.250000      2.000000
 -0.333333  0.333333  0.250000      2.000000
  0.000000 -0.333333  0.250000      2.000000
  0.333333 -0.333333  0.250000      2.000000
 -0.333333 -0.333333  0.250000      2.000000
 
 Following cartesian coordinates:
            Coordinates               Weight
  0.000000  0.000000  0.016667      2.000000
  0.032808  0.000000  0.016667      2.000000
 -0.032808  0.000000  0.016667      2.000000
  0.000000  0.028345  0.016667      2.000000
  0.032808  0.028345  0.016667      2.000000
 -0.032808  0.028345  0.016667      2.000000
  0.000000 -0.028345  0.016667      2.000000
  0.032808 -0.028345  0.016667      2.000000
 -0.032808 -0.028345  0.016667      2.000000
 


--------------------------------------------------------------------------------------------------------




 Dimension of arrays:
   k-points           NKPTS =      9   k-points in BZ     NKDIM =      9   number of bands    NBANDS=     14
   number of dos      NEDOS =    301   number of ions     NIONS =      6
   non local maximal  LDIM  =      4   non local SUM 2l+1 LMDIM =      8
   total plane-waves  NPLWV = 301056
   max r-space proj   IRMAX =   1159   max aug-charges    IRDMAX=   2379
   dimension x,y,z NGX =    56 NGY =   64 NGZ =   84
   dimension x,y,z NGXF=   112 NGYF=  128 NGZF=  168
   support grid    NGXF=   112 NGYF=  128 NGZF=  168
   ions per type =               1   1   4
 NGX,Y,Z   is equivalent  to a cutoff of   9.16,  9.05,  9.31 a.u.
 NGXF,Y,Z  is equivalent  to a cutoff of  18.33, 18.09, 18.62 a.u.


 I would recommend the setting:
   dimension x,y,z NGX =    56 NGY =   64 NGZ =   82
 SYSTEM =  Beta12Borophene !The name of the system 
 POSCAR =  MoleculeAdsorption                      

 Startparameter for this run:
   NWRITE =      2    write-flag & timer
   PREC   = normal    normal or accurate (medium, high low for compatibility)
   ISTART =      0    job   : 0-new  1-cont  2-samecut
   ICHARG =      2    charge: 1-file 2-atom 10-const
   ISPIN  =      2    spin polarized calculation?
   LNONCOLLINEAR =      F non collinear calculations
   LSORBIT =      F    spin-orbit coupling
   INIWAV =      1    electr: 0-lowe 1-rand  2-diag
   LASPH  =      F    aspherical Exc in radial PAW
   METAGGA=      F    non-selfconsistent MetaGGA calc.

 Electronic Relaxation 1
   ENCUT  =  500.0 eV  36.75 Ry    6.06 a.u.  18.52 21.44 27.35*2*pi/ulx,y,z
   ENINI  =  500.0     initial cutoff
   ENAUG  =  644.9 eV  augmentation charge cutoff
   NELM   =     60;   NELMIN=  2; NELMDL= -5     # of ELM steps 
   EDIFF  = 0.1E-03   stopping-criterion for ELM
   LREAL  =      T    real-space projection
   NLSPLINE    = F    spline interpolate recip. space projectors
   LCOMPAT=      F    compatible to vasp.4.4
   GGA_COMPAT  = T    GGA compatible to vasp.4.4-vasp.4.6
   LMAXPAW     = -100 max onsite density
   LMAXMIX     =    2 max onsite mixed and CHGCAR
   VOSKOWN=      0    Vosko Wilk Nusair interpolation
   ROPT   =   -0.00050  -0.00050  -0.00050
 Ionic relaxation
   EDIFFG = -.1E-01   stopping-criterion for IOM
   NSW    =   1000    number of steps for IOM
   NBLOCK =      1;   KBLOCK =   1000    inner block; outer block 
   IBRION =      2    ionic relax: 0-MD 1-quasi-New 2-CG
   NFREE  =      1    steps in history (QN), initial steepest desc. (CG)
   ISIF   =      2    stress and relaxation
   IWAVPR =     11    prediction:  0-non 1-charg 2-wave 3-comb
   ISYM   =      2    0-nonsym 1-usesym 2-fastsym
   LCORR  =      T    Harris-Foulkes like correction to forces

   POTIM  = 0.5000    time-step for ionic-motion
   TEIN   =    0.0    initial temperature
   TEBEG  =    0.0;   TEEND  =   0.0 temperature during run
   SMASS  =  -3.00    Nose mass-parameter (am)
   estimated Nose-frequenzy (Omega)   =  0.10E-29 period in steps =****** mass=  -0.236E-26a.u.
   SCALEE = 1.0000    scale energy and forces
   NPACO  =    256;   APACO  = 16.0  distance and # of slots for P.C.
   PSTRESS=    0.0 pullay stress

  Mass of Ions in am
   POMASS =  12.01 16.00  1.00
  Ionic Valenz
   ZVAL   =   4.00  6.00  1.00
  Atomic Wigner-Seitz radii
   RWIGS  =  -1.00 -1.00 -1.00
  virtual crystal weights 
   VCA    =   1.00  1.00  1.00
   NELECT =      14.0000    total number of electrons
   NUPDOWN=      -1.0000    fix difference up-down

 DOS related values:
   EMIN   =  10.00;   EMAX   =-10.00  energy-range for DOS
   EFERMI =   0.00
   ISMEAR =     1;   SIGMA  =   0.10  broadening in eV -4-tet -1-fermi 0-gaus

 Electronic relaxation 2 (details)
   IALGO  =     38    algorithm
   LDIAG  =      T    sub-space diagonalisation (order eigenvalues)
   LSUBROT=      T    optimize rotation matrix (better conditioning)
   TURBO    =      0    0=normal 1=particle mesh
   IRESTART =      0    0=no restart 2=restart with 2 vectors
   NREBOOT  =      0    no. of reboots
   NMIN     =      0    reboot dimension
   EREF     =   0.00    reference energy to select bands
   IMIX   =      4    mixing-type and parameters
     AMIX     =   0.40;   BMIX     =  1.00
     AMIX_MAG =   1.60;   BMIX_MAG =  1.00
     AMIN     =   0.10
     WC   =   100.;   INIMIX=   1;  MIXPRE=   1;  MAXMIX= -45

 Intra band minimization:
   WEIMIN = 0.0010     energy-eigenvalue tresh-hold
   EBREAK =  0.18E-05  absolut break condition
   DEPER  =   0.30     relativ break condition  

   TIME   =   0.40     timestep for ELM

  volume/ion in A,a.u.               =     298.70      2015.75
  Fermi-wavevector in a.u.,A,eV,Ry     =   0.324828  0.613836  1.435594  0.105513
  Thomas-Fermi vector in A             =   1.215292
 
 Write flags
   LWAVE  =      F    write WAVECAR
   LCHARG =      F    write CHGCAR
   LVTOT  =      F    write LOCPOT, total local potential
   LVHAR  =      F    write LOCPOT, Hartree potential only
   LELF   =      F    write electronic localiz. function (ELF)
   LORBIT =      0    0 simple, 1 ext, 2 COOP (PROOUT)


 Dipole corrections
   LMONO  =      F    monopole corrections only (constant potential shift)
   LDIPOL =      T    correct potential (dipole corrections)
   IDIPOL =      3    1-x, 2-y, 3-z, 4-all directions 
   EPSILON=  1.0000000 bulk dielectric constant

 Exchange correlation treatment:
   GGA     =    PE    GGA type
   LEXCH   =     8    internal setting for exchange type
   VOSKOWN=      0    Vosko Wilk Nusair interpolation
   LHFCALC =     F    Hartree Fock is set to
   LHFONE  =     F    Hartree Fock one center treatment
   AEXX    =    0.0000 exact exchange contribution

 Linear response parameters
   LEPSILON=     F    determine dielectric tensor
   LRPA    =     F    only Hartree local field effects (RPA)
   LNABLA  =     F    use nabla operator in PAW spheres
   LVEL    =     F    velocity operator in full k-point grid
   LINTERFAST=   F  fast interpolation
   KINTER  =     0    interpolate to denser k-point grid
   CSHIFT  =0.1000    complex shift for real part using Kramers Kronig
   OMEGAMAX=  -1.0    maximum frequency
   DEG_THRESHOLD= 0.2000000E-02 threshold for treating states as degnerate
   RTIME   =    0.100 relaxation time in fs

 Orbital magnetization related:
   ORBITALMAG=     F  switch on orbital magnetization
   LCHIMAG   =     F  perturbation theory with respect to B field
   DQ        =  0.001000  dq finite difference perturbation B field



--------------------------------------------------------------------------------------------------------


 conjugate gradient relaxation of ions
 charge density and potential will be updated during run
 spin polarized calculation
 Variant of blocked Davidson
 Davidson routine will perform the subspace rotation
 perform sub-space diagonalisation
    after iterative eigenvector-optimisation
 modified Broyden-mixing scheme, WC =      100.0
 initial mixing is a Kerker type mixing with AMIX =  0.4000 and BMIX =      1.0000
 Hartree-type preconditioning will be used
 using additional bands            7
 real space projection scheme for non local part
 use partial core corrections
 calculate Harris-corrections to forces 
   (improved forces if not selfconsistent)
 use gradient corrections 
 use of overlap-Matrix (Vanderbilt PP)
 Methfessel and Paxton  Order N= 1 SIGMA  =   0.10


--------------------------------------------------------------------------------------------------------


  energy-cutoff  :      500.00
  volume of cell :     1792.22
      direct lattice vectors                 reciprocal lattice vectors
    10.160000000  0.000000000  0.000000000     0.098425197  0.000000000  0.000000000
     0.000000000 11.760000000  0.000000000     0.000000000  0.085034014  0.000000000
     0.000000000  0.000000000 15.000000000     0.000000000  0.000000000  0.066666667

  length of vectors
    10.160000000 11.760000000 15.000000000     0.098425197  0.085034014  0.066666667


 
 k-points in units of 2pi/SCALE and weight: K-Points                                
   0.00000000  0.00000000  0.01666667       0.111
   0.03280840  0.00000000  0.01666667       0.111
  -0.03280840  0.00000000  0.01666667       0.111
   0.00000000  0.02834467  0.01666667       0.111
   0.03280840  0.02834467  0.01666667       0.111
  -0.03280840  0.02834467  0.01666667       0.111
   0.00000000 -0.02834467  0.01666667       0.111
   0.03280840 -0.02834467  0.01666667       0.111
  -0.03280840 -0.02834467  0.01666667       0.111
 
 k-points in reciprocal lattice and weights: K-Points                                
   0.00000000  0.00000000  0.25000000       0.111
   0.33333333  0.00000000  0.25000000       0.111
  -0.33333333  0.00000000  0.25000000       0.111
   0.00000000  0.33333333  0.25000000       0.111
   0.33333333  0.33333333  0.25000000       0.111
  -0.33333333  0.33333333  0.25000000       0.111
   0.00000000 -0.33333333  0.25000000       0.111
   0.33333333 -0.33333333  0.25000000       0.111
  -0.33333333 -0.33333333  0.25000000       0.111
 
 position of ions in fractional coordinates (direct lattice) 
   0.13033000  0.98029000  0.97436000
   0.00000000  0.00000000  0.00000000
   0.16408000  0.89617000  0.99926000
   0.19515000  0.04950000  0.99926000
   0.13582000  0.97946000  0.90049000
   0.00000000  0.00000000  0.06616000
 
 position of ions in cartesian coordinates  (Angst):
   1.32415280 11.52821040 14.61540000
   0.00000000  0.00000000  0.00000000
   1.66705280 10.53895920 14.98890000
   1.98272400  0.58212000 14.98890000
   1.37993120 11.51844960 13.50735000
   0.00000000  0.00000000  0.99240000
 


--------------------------------------------------------------------------------------------------------


 k-point  1 :   0.0000 0.0000 0.2500  plane waves:   45501
 k-point  2 :   0.3333 0.0000 0.2500  plane waves:   45508
 k-point  3 :  -0.3333 0.0000 0.2500  plane waves:   45508
 k-point  4 :   0.0000 0.3333 0.2500  plane waves:   45494
 k-point  5 :   0.3333 0.3333 0.2500  plane waves:   45490
 k-point  6 :  -0.3333 0.3333 0.2500  plane waves:   45490
 k-point  7 :   0.0000-0.3333 0.2500  plane waves:   45494
 k-point  8 :   0.3333-0.3333 0.2500  plane waves:   45490
 k-point  9 :  -0.3333-0.3333 0.2500  plane waves:   45490

 maximum and minimum number of plane-waves per node :     11425    11326

 maximum number of plane-waves:     45508
 maximum index in each direction: 
   IXMAX=   18   IYMAX=   21   IZMAX=   27
   IXMIN=  -18   IYMIN=  -21   IZMIN=  -27

 WARNING: aliasing errors must be expected set NGX to  74 to avoid them
 WARNING: aliasing errors must be expected set NGY to  86 to avoid them
 WARNING: aliasing errors must be expected set NGZ to 110 to avoid them
 aliasing errors are usually negligible using standard VASP settings
 and one can safely disregard these warnings

 real space projection operators:
  total allocation   :        256.50 KBytes
  max/ min on nodes  :         65.88         62.16


 parallel 3D FFT for wavefunctions:
    minimum data exchange during FFTs selected (reduces bandwidth)
 parallel 3D FFT for charge:
    minimum data exchange during FFTs selected (reduces bandwidth)


 total amount of memory used by VASP on root node   158413. kBytes
========================================================================

   base      :      30000. kBytes
   nonlr-proj:        194. kBytes
   fftplans  :      22744. kBytes
   grid      :      59551. kBytes
   one-center:         12. kBytes
   wavefun   :      45912. kBytes
 
 Broyden mixing: mesh for mixing (old mesh)
   NGX = 37   NGY = 43   NGZ = 55
  (NGX  =112   NGY  =128   NGZ  =168)
  gives a total of  87505 points

 initial charge density was supplied:
 charge density of overlapping atoms calculated
 number of electron      14.0000000 magnetization       6.0000000
 keeping initial charge density in first step


--------------------------------------------------------------------------------------------------------


 Maximum index for non-local projection operator          285
 Maximum index for augmentation-charges          489 (set IRDMAX)


--------------------------------------------------------------------------------------------------------


 First call to EWALD:  gamma=   0.146
 Maximum number of real-space cells 3x 3x 2
 Maximum number of reciprocal cells 2x 3x 3

 FEWALD executed in parallel
    FEWALD:  cpu time    0.00: real time    0.00


----------------------------------------- Iteration    1(   1)  ---------------------------------------


    POTLOK:  cpu time    0.86: real time    0.86
    SETDIJ:  cpu time    0.01: real time    0.01
     EDDAV:  cpu time    6.33: real time    6.35
       DOS:  cpu time    0.00: real time    0.00
    --------------------------------------------
      LOOP:  cpu time    7.21: real time    7.23

 eigenvalue-minimisations  :   712
 total energy-change (2. order) : 0.5954488E+02  (-0.3096463E+03)
 number of electron      14.0000000 magnetization       6.0000000
 augmentation part       14.0000000 magnetization       6.0000000

 DIPCOR: dipole corrections for dipol
 direction  3 min pos    84,
 dipolmoment           0.000000      0.000000      0.000007 electrons x Angstroem
 Tr[quadrupol]       -15.687689

 energy correction for charged system         0.000000 eV
 dipol+quadrupol energy correction           -0.000000 eV
 added-field ion interaction          0.000001 eV  (added to PSCEN)


 Free energy of the ion-electron system (eV)
  ---------------------------------------------------
  alpha Z        PSCENC =         0.41745169
  Ewald energy   TEWEN  =       375.09116614
  -1/2 Hartree   DENC   =      -845.09323113
  -exchange  EXHF       =         0.00000000
  -V(xc)+E(xc)   XCENC  =        51.62565645
  PAW double counting   =       461.97714119     -464.36507213
  entropy T*S    EENTRO =         0.00107223
  eigenvalues    EBANDS =      -149.55987977
  atomic energy  EATOM  =       629.45057577
  ---------------------------------------------------
  free energy    TOTEN  =        59.54488044 eV

  energy without entropy =       59.54380821  energy(sigma->0) =       59.54452303


--------------------------------------------------------------------------------------------------------




----------------------------------------- Iteration    1(   2)  ---------------------------------------


     EDDAV:  cpu time    7.71: real time    7.71
       DOS:  cpu time    0.00: real time    0.00
    --------------------------------------------
      LOOP:  cpu time    7.71: real time    7.73

 eigenvalue-minimisations  :   814
 total energy-change (2. order) :-0.6596246E+02  (-0.6145304E+02)
 number of electron      14.0000000 magnetization       6.0000000
 augmentation part       14.0000000 magnetization       6.0000000

 DIPCOR: dipole corrections for dipol
 direction  3 min pos    84,
 dipolmoment           0.000000      0.000000      0.000007 electrons x Angstroem
 Tr[quadrupol]       -15.687689

 energy correction for charged system         0.000000 eV
 dipol+quadrupol energy correction           -0.000000 eV
 added-field ion interaction          0.000001 eV  (added to PSCEN)


 Free energy of the ion-electron system (eV)
  ---------------------------------------------------
  alpha Z        PSCENC =         0.41745169
  Ewald energy   TEWEN  =       375.09116614
  -1/2 Hartree   DENC   =      -845.09323113
  -exchange  EXHF       =         0.00000000
  -V(xc)+E(xc)   XCENC  =        51.62565645
  PAW double counting   =       461.97714119     -464.36507213
  entropy T*S    EENTRO =        -0.00079918
  eigenvalues    EBANDS =      -215.52046850
  atomic energy  EATOM  =       629.45057577
  ---------------------------------------------------
  free energy    TOTEN  =        -6.41757969 eV

  energy without entropy =       -6.41678052  energy(sigma->0) =       -6.41731330


--------------------------------------------------------------------------------------------------------




----------------------------------------- Iteration    1(   3)  ---------------------------------------


     EDDAV:  cpu time    7.05: real time    7.06
       DOS:  cpu time    0.00: real time    0.00
    --------------------------------------------
      LOOP:  cpu time    7.05: real time    7.08

 eigenvalue-minimisations  :   750
 total energy-change (2. order) :-0.1728439E+02  (-0.1505357E+02)
 number of electron      14.0000000 magnetization       6.0000000
 augmentation part       14.0000000 magnetization       6.0000000

 DIPCOR: dipole corrections for dipol
 direction  3 min pos    84,
 dipolmoment           0.000000      0.000000      0.000007 electrons x Angstroem
 Tr[quadrupol]       -15.687689

 energy correction for charged system         0.000000 eV
 dipol+quadrupol energy correction           -0.000000 eV
 added-field ion interaction          0.000001 eV  (added to PSCEN)


 Free energy of the ion-electron system (eV)
  ---------------------------------------------------
  alpha Z        PSCENC =         0.41745169
  Ewald energy   TEWEN  =       375.09116614
  -1/2 Hartree   DENC   =      -845.09323113
  -exchange  EXHF       =         0.00000000
  -V(xc)+E(xc)   XCENC  =        51.62565645
  PAW double counting   =       461.97714119     -464.36507213
  entropy T*S    EENTRO =         0.00032211
  eigenvalues    EBANDS =      -232.80598188
  atomic energy  EATOM  =       629.45057577
  ---------------------------------------------------
  free energy    TOTEN  =       -23.70197179 eV

  energy without entropy =      -23.70229390  energy(sigma->0) =      -23.70207916


--------------------------------------------------------------------------------------------------------




----------------------------------------- Iteration    1(   4)  ---------------------------------------


     EDDAV:  cpu time    6.57: real time    6.57
       DOS:  cpu time    0.00: real time    0.00
    --------------------------------------------
      LOOP:  cpu time    6.57: real time    6.59

 eigenvalue-minimisations  :   686
 total energy-change (2. order) :-0.1960234E+01  (-0.1947274E+01)
 number of electron      14.0000000 magnetization       6.0000000
 augmentation part       14.0000000 magnetization       6.0000000

 DIPCOR: dipole corrections for dipol
 direction  3 min pos    84,
 dipolmoment           0.000000      0.000000      0.000007 electrons x Angstroem
 Tr[quadrupol]       -15.687689

 energy correction for charged system         0.000000 eV
 dipol+quadrupol energy correction           -0.000000 eV
 added-field ion interaction          0.000001 eV  (added to PSCEN)


 Free energy of the ion-electron system (eV)
  ---------------------------------------------------
  alpha Z        PSCENC =         0.41745169
  Ewald energy   TEWEN  =       375.09116614
  -1/2 Hartree   DENC   =      -845.09323113
  -exchange  EXHF       =         0.00000000
  -V(xc)+E(xc)   XCENC  =        51.62565645
  PAW double counting   =       461.97714119     -464.36507213
  entropy T*S    EENTRO =         0.00106186
  eigenvalues    EBANDS =      -234.76695595
  atomic energy  EATOM  =       629.45057577
  ---------------------------------------------------
  free energy    TOTEN  =       -25.66220611 eV

  energy without entropy =      -25.66326797  energy(sigma->0) =      -25.66256006


--------------------------------------------------------------------------------------------------------




----------------------------------------- Iteration    1(   5)  ---------------------------------------


     EDDAV:  cpu time    7.36: real time    7.37
       DOS:  cpu time    0.00: real time    0.00
    CHARGE:  cpu time    0.31: real time    0.31
    MIXING:  cpu time    0.02: real time    0.02
    --------------------------------------------
      LOOP:  cpu time    7.69: real time    7.73

 eigenvalue-minimisations  :   780
 total energy-change (2. order) :-0.4258359E-01  (-0.4442827E-01)
 number of electron      13.9999993 magnetization       4.5670179
 augmentation part        0.9698136 magnetization       4.5491921

 DIPCOR: dipole corrections for dipol
 direction  3 min pos    84,
 dipolmoment           0.000000      0.000000      0.000007 electrons x Angstroem
 Tr[quadrupol]       -15.687689

 energy correction for charged system         0.000000 eV
 dipol+quadrupol energy correction           -0.000000 eV
 added-field ion interaction          0.000001 eV  (added to PSCEN)


 Broyden mixing:
  rms(total) = 0.17424E+01    rms(broyden)= 0.17418E+01
  rms(prec ) = 0.18561E+01
  weight for this iteration     100.00

 Free energy of the ion-electron system (eV)
  ---------------------------------------------------
  alpha Z        PSCENC =         0.41745169
  Ewald energy   TEWEN  =       375.09116614
  -1/2 Hartree   DENC   =      -845.09323113
  -exchange  EXHF       =         0.00000000
  -V(xc)+E(xc)   XCENC  =        51.62565645
  PAW double counting   =       461.97714119     -464.36507213
  entropy T*S    EENTRO =         0.00290025
  eigenvalues    EBANDS =      -234.81137792
  atomic energy  EATOM  =       629.45057577
  ---------------------------------------------------
  free energy    TOTEN  =       -25.70478970 eV

  energy without entropy =      -25.70768994  energy(sigma->0) =      -25.70575645


--------------------------------------------------------------------------------------------------------




----------------------------------------- Iteration    1(   6)  ---------------------------------------


    POTLOK:  cpu time    1.17: real time    1.17
    SETDIJ:  cpu time    0.01: real time    0.01
     EDDAV:  cpu time    5.80: real time    5.80
       DOS:  cpu time    0.00: real time    0.00
    CHARGE:  cpu time    0.35: real time    0.35
    MIXING:  cpu time    0.02: real time    0.02
    --------------------------------------------
      LOOP:  cpu time    7.36: real time    7.38

 eigenvalue-minimisations  :   600
 total energy-change (2. order) : 0.1528630E+02  (-0.3942760E+01)
 number of electron      13.9999989 magnetization       3.4948515
 augmentation part        0.8883676 magnetization       3.4143582

 DIPCOR: dipole corrections for dipol
 direction  3 min pos    87,
 dipolmoment           0.000000      0.000000     -0.036032 electrons x Angstroem
 Tr[quadrupol]       -15.853389

 energy correction for charged system         0.000000 eV
 dipol+quadrupol energy correction           -0.000066 eV
 added-field ion interaction         -0.016834 eV  (added to PSCEN)


 Broyden mixing:
  rms(total) = 0.73455E+00    rms(broyden)= 0.73424E+00
  rms(prec ) = 0.79420E+00
  weight for this iteration     100.00

 eigenvalues of (default mixing * dielectric matrix)
  average eigenvalue GAMMA=   0.8795
  0.8795

 Free energy of the ion-electron system (eV)
  ---------------------------------------------------
  alpha Z        PSCENC =         0.40055059
  Ewald energy   TEWEN  =       375.09116614
  -1/2 Hartree   DENC   =      -881.76948618
  -exchange  EXHF       =         0.00000000
  -V(xc)+E(xc)   XCENC  =        68.31180435
  PAW double counting   =       650.60839467     -653.45886328
  entropy T*S    EENTRO =         0.00289910
  eigenvalues    EBANDS =      -199.05553103
  atomic energy  EATOM  =       629.45057577
  ---------------------------------------------------
  free energy    TOTEN  =       -10.41848985 eV

  energy without entropy =      -10.42138896  energy(sigma->0) =      -10.41945622


--------------------------------------------------------------------------------------------------------




----------------------------------------- Iteration    1(   7)  ---------------------------------------


    POTLOK:  cpu time    1.20: real time    1.20
    SETDIJ:  cpu time    0.01: real time    0.01
     EDDAV:  cpu time    6.57: real time    6.57
       DOS:  cpu time    0.00: real time    0.00
    CHARGE:  cpu time    0.30: real time    0.30
    MIXING:  cpu time    0.02: real time    0.02
    --------------------------------------------
      LOOP:  cpu time    8.11: real time    8.14

 eigenvalue-minimisations  :   696
 total energy-change (2. order) :-0.1248744E+02  (-0.1125386E+01)
 number of electron      13.9999988 magnetization       2.6960500
 augmentation part        0.8265548 magnetization       2.6462890

 DIPCOR: dipole corrections for dipol
 direction  3 min pos    88,
 dipolmoment           0.000000      0.000000     -0.056012 electrons x Angstroem
 Tr[quadrupol]       -15.969543

 energy correction for charged system         0.000000 eV
 dipol+quadrupol energy correction           -0.000161 eV
 added-field ion interaction         -0.033341 eV  (added to PSCEN)


 Broyden mixing:
  rms(total) = 0.45288E+00    rms(broyden)= 0.45280E+00
  rms(prec ) = 0.48196E+00
  weight for this iteration     100.00

 eigenvalues of (default mixing * dielectric matrix)
  average eigenvalue GAMMA=   0.8730
  0.8730  0.8730

 Free energy of the ion-electron system (eV)
  ---------------------------------------------------
  alpha Z        PSCENC =         0.38394971
  Ewald energy   TEWEN  =       375.09116614
  -1/2 Hartree   DENC   =      -897.10626264
  -exchange  EXHF       =         0.00000000
  -V(xc)+E(xc)   XCENC  =        59.02674830
  PAW double counting   =       786.24255996     -789.17514272
  entropy T*S    EENTRO =         0.00326332
  eigenvalues    EBANDS =      -186.82278631
  atomic energy  EATOM  =       629.45057577
  ---------------------------------------------------
  free energy    TOTEN  =       -22.90592847 eV

  energy without entropy =      -22.90919179  energy(sigma->0) =      -22.90701624


--------------------------------------------------------------------------------------------------------




----------------------------------------- Iteration    1(   8)  ---------------------------------------


    POTLOK:  cpu time    1.16: real time    1.16
    SETDIJ:  cpu time    0.01: real time    0.01
     EDDAV:  cpu time    7.01: real time    7.02
       DOS:  cpu time    0.00: real time    0.00
    CHARGE:  cpu time    0.24: real time    0.24
    MIXING:  cpu time    0.02: real time    0.02
    --------------------------------------------
      LOOP:  cpu time    8.45: real time    8.47

 eigenvalue-minimisations  :   752
 total energy-change (2. order) :-0.1972937E+01  (-0.6960864E-01)
 number of electron      13.9999988 magnetization       1.5007242
 augmentation part        0.8354539 magnetization       1.4715582

 DIPCOR: dipole corrections for dipol
 direction  3 min pos    88,
 dipolmoment           0.000000      0.000000     -0.067315 electrons x Angstroem
 Tr[quadrupol]       -16.057958

 energy correction for charged system         0.000000 eV
 dipol+quadrupol energy correction           -0.000232 eV
 added-field ion interaction         -0.040068 eV  (added to PSCEN)


 Broyden mixing:
  rms(total) = 0.27336E+00    rms(broyden)= 0.27335E+00
  rms(prec ) = 0.29312E+00
  weight for this iteration     100.00

 eigenvalues of (default mixing * dielectric matrix)
  average eigenvalue GAMMA=   1.1626
  1.7663  1.0614  0.6601

 Free energy of the ion-electron system (eV)
  ---------------------------------------------------
  alpha Z        PSCENC =         0.37715062
  Ewald energy   TEWEN  =       375.09116614
  -1/2 Hartree   DENC   =      -899.02246185
  -exchange  EXHF       =         0.00000000
  -V(xc)+E(xc)   XCENC  =        57.42489037
  PAW double counting   =       856.59135939     -859.45390360
  entropy T*S    EENTRO =         0.00293578
  eigenvalues    EBANDS =      -185.34057786
  atomic energy  EATOM  =       629.45057577
  ---------------------------------------------------
  free energy    TOTEN  =       -24.87886524 eV

  energy without entropy =      -24.88180102  energy(sigma->0) =      -24.87984384


--------------------------------------------------------------------------------------------------------




----------------------------------------- Iteration    1(   9)  ---------------------------------------


    POTLOK:  cpu time    1.14: real time    1.14
    SETDIJ:  cpu time    0.01: real time    0.01
     EDDAV:  cpu time    5.51: real time    5.52
       DOS:  cpu time    0.00: real time    0.00
    CHARGE:  cpu time    0.33: real time    0.33
    MIXING:  cpu time    0.03: real time    0.03
    --------------------------------------------
      LOOP:  cpu time    7.04: real time    7.06

 eigenvalue-minimisations  :   560
 total energy-change (2. order) :-0.3476332E+01  (-0.1629857E+00)
 number of electron      13.9999989 magnetization       1.1390549
 augmentation part        0.8380274 magnetization       1.0676181

 DIPCOR: dipole corrections for dipol
 direction  3 min pos    88,
 dipolmoment           0.000000      0.000000     -0.087812 electrons x Angstroem
 Tr[quadrupol]       -16.215242

 energy correction for charged system         0.000000 eV
 dipol+quadrupol energy correction           -0.000395 eV
 added-field ion interaction         -0.052269 eV  (added to PSCEN)


 Broyden mixing:
  rms(total) = 0.90071E-01    rms(broyden)= 0.89924E-01
  rms(prec ) = 0.99033E-01
  weight for this iteration     100.00

 eigenvalues of (default mixing * dielectric matrix)
  average eigenvalue GAMMA=   1.1531
  1.9732  1.2140  0.7565  0.6688

 Free energy of the ion-electron system (eV)
  ---------------------------------------------------
  alpha Z        PSCENC =         0.36478700
  Ewald energy   TEWEN  =       375.09116614
  -1/2 Hartree   DENC   =      -903.27921506
  -exchange  EXHF       =         0.00000000
  -V(xc)+E(xc)   XCENC  =        54.82307613
  PAW double counting   =       945.81397884     -948.62822667
  entropy T*S    EENTRO =         0.00645064
  eigenvalues    EBANDS =      -181.99779011
  atomic energy  EATOM  =       629.45057577
  ---------------------------------------------------
  free energy    TOTEN  =       -28.35519733 eV

  energy without entropy =      -28.36164797  energy(sigma->0) =      -28.35734754


--------------------------------------------------------------------------------------------------------




----------------------------------------- Iteration    1(  10)  ---------------------------------------


    POTLOK:  cpu time    1.14: real time    1.18
    SETDIJ:  cpu time    0.01: real time    0.01
     EDDAV:  cpu time    6.43: real time    6.43
       DOS:  cpu time    0.00: real time    0.00
    CHARGE:  cpu time    0.30: real time    0.30
    MIXING:  cpu time    0.03: real time    0.03
    --------------------------------------------
      LOOP:  cpu time    7.92: real time    7.99

 eigenvalue-minimisations  :   678
 total energy-change (2. order) :-0.6155670E+00  (-0.2029596E-01)
 number of electron      13.9999989 magnetization       0.8923022
 augmentation part        0.8303758 magnetization       0.8835988

 DIPCOR: dipole corrections for dipol
 direction  3 min pos    88,
 dipolmoment           0.000000      0.000000     -0.097290 electrons x Angstroem
 Tr[quadrupol]       -16.286646

 energy correction for charged system         0.000000 eV
 dipol+quadrupol energy correction           -0.000485 eV
 added-field ion interaction         -0.057911 eV  (added to PSCEN)


 Broyden mixing:
  rms(total) = 0.64334E-01    rms(broyden)= 0.64307E-01
  rms(prec ) = 0.70316E-01
  weight for this iteration     100.00

 eigenvalues of (default mixing * dielectric matrix)
  average eigenvalue GAMMA=   1.0428
  2.0330  1.1625  0.8417  0.6909  0.4857

 Free energy of the ion-electron system (eV)
  ---------------------------------------------------
  alpha Z        PSCENC =         0.35905557
  Ewald energy   TEWEN  =       375.09116614
  -1/2 Hartree   DENC   =      -905.11787786
  -exchange  EXHF       =         0.00000000
  -V(xc)+E(xc)   XCENC  =        54.40518742
  PAW double counting   =       954.88001605     -957.70598492
  entropy T*S    EENTRO =         0.00325659
  eigenvalues    EBANDS =      -180.33615912
  atomic energy  EATOM  =       629.45057577
  ---------------------------------------------------
  free energy    TOTEN  =       -28.97076436 eV

  energy without entropy =      -28.97402095  energy(sigma->0) =      -28.97184989


--------------------------------------------------------------------------------------------------------




----------------------------------------- Iteration    1(  11)  ---------------------------------------


    POTLOK:  cpu time    1.18: real time    1.19
    SETDIJ:  cpu time    0.02: real time    0.02
     EDDAV:  cpu time    6.04: real time    6.04
       DOS:  cpu time    0.00: real time    0.00
    CHARGE:  cpu time    0.28: real time    0.28
    MIXING:  cpu time    0.03: real time    0.03
    --------------------------------------------
      LOOP:  cpu time    7.56: real time    7.58

 eigenvalue-minimisations  :   628
 total energy-change (2. order) :-0.1872404E+00  (-0.2318471E-02)
 number of electron      13.9999989 magnetization       0.5204374
 augmentation part        0.8275371 magnetization       0.4577333

 DIPCOR: dipole corrections for dipol
 direction  3 min pos    88,
 dipolmoment           0.000000      0.000000     -0.104661 electrons x Angstroem
 Tr[quadrupol]       -16.345787

 energy correction for charged system         0.000000 eV
 dipol+quadrupol energy correction           -0.000561 eV
 added-field ion interaction         -0.062298 eV  (added to PSCEN)


 Broyden mixing:
  rms(total) = 0.54659E-01    rms(broyden)= 0.54608E-01
  rms(prec ) = 0.59309E-01
  weight for this iteration     100.00

 eigenvalues of (default mixing * dielectric matrix)
  average eigenvalue GAMMA=   1.1062
  1.8787  1.8787  0.9139  0.9139  0.6398  0.4121

 Free energy of the ion-electron system (eV)
  ---------------------------------------------------
  alpha Z        PSCENC =         0.35459191
  Ewald energy   TEWEN  =       375.09116614
  -1/2 Hartree   DENC   =      -905.72193836
  -exchange  EXHF       =         0.00000000
  -V(xc)+E(xc)   XCENC  =        54.25546448
  PAW double counting   =       953.35130790     -956.17935595
  entropy T*S    EENTRO =         0.00639029
  eigenvalues    EBANDS =      -179.76620691
  atomic energy  EATOM  =       629.45057577
  ---------------------------------------------------
  free energy    TOTEN  =       -29.15800473 eV

  energy without entropy =      -29.16439502  energy(sigma->0) =      -29.16013482


--------------------------------------------------------------------------------------------------------




----------------------------------------- Iteration    1(  12)  ---------------------------------------


    POTLOK:  cpu time    1.16: real time    1.16
    SETDIJ:  cpu time    0.01: real time    0.01
     EDDAV:  cpu time    5.79: real time    5.79
       DOS:  cpu time    0.00: real time    0.00
    CHARGE:  cpu time    0.31: real time    0.31
    MIXING:  cpu time    0.03: real time    0.03
    --------------------------------------------
      LOOP:  cpu time    7.31: real time    7.34

 eigenvalue-minimisations  :   594
 total energy-change (2. order) :-0.4277614E+00  (-0.4190316E-02)
 number of electron      13.9999989 magnetization       0.2541417
 augmentation part        0.8270444 magnetization       0.2248906

 DIPCOR: dipole corrections for dipol
 direction  3 min pos    88,
 dipolmoment           0.000000      0.000000     -0.117544 electrons x Angstroem
 Tr[quadrupol]       -16.451127

 energy correction for charged system         0.000000 eV
 dipol+quadrupol energy correction           -0.000708 eV
 added-field ion interaction         -0.069967 eV  (added to PSCEN)


 Broyden mixing:
  rms(total) = 0.25175E-01    rms(broyden)= 0.25154E-01
  rms(prec ) = 0.29721E-01
  weight for this iteration     100.00

 eigenvalues of (default mixing * dielectric matrix)
  average eigenvalue GAMMA=   1.1942
  2.4055  2.1826  1.0179  0.8598  0.8598  0.6345  0.3996

 Free energy of the ion-electron system (eV)
  ---------------------------------------------------
  alpha Z        PSCENC =         0.34677682
  Ewald energy   TEWEN  =       375.09116614
  -1/2 Hartree   DENC   =      -906.08195167
  -exchange  EXHF       =         0.00000000
  -V(xc)+E(xc)   XCENC  =        53.85373677
  PAW double counting   =       947.49115624     -950.31409601
  entropy T*S    EENTRO =         0.00487108
  eigenvalues    EBANDS =      -179.42800126
  atomic energy  EATOM  =       629.45057577
  ---------------------------------------------------
  free energy    TOTEN  =       -29.58576613 eV

  energy without entropy =      -29.59063720  energy(sigma->0) =      -29.58738982


--------------------------------------------------------------------------------------------------------




----------------------------------------- Iteration    1(  13)  ---------------------------------------


    POTLOK:  cpu time    1.14: real time    1.14
    SETDIJ:  cpu time    0.01: real time    0.01
     EDDAV:  cpu time    5.54: real time    5.54
       DOS:  cpu time    0.00: real time    0.00
    CHARGE:  cpu time    0.27: real time    0.27
    MIXING:  cpu time    0.03: real time    0.03
    --------------------------------------------
      LOOP:  cpu time    7.00: real time    7.02

 eigenvalue-minimisations  :   552
 total energy-change (2. order) :-0.3425750E+00  (-0.2949868E-02)
 number of electron      13.9999989 magnetization       0.0975190
 augmentation part        0.8272059 magnetization       0.0495700

 DIPCOR: dipole corrections for dipol
 direction  3 min pos    88,
 dipolmoment           0.000000      0.000000     -0.129754 electrons x Angstroem
 Tr[quadrupol]       -16.549311

 energy correction for charged system         0.000000 eV
 dipol+quadrupol energy correction           -0.000862 eV
 added-field ion interaction         -0.077235 eV  (added to PSCEN)


 Broyden mixing:
  rms(total) = 0.15664E-01    rms(broyden)= 0.15634E-01
  rms(prec ) = 0.19047E-01
  weight for this iteration     100.00

 eigenvalues of (default mixing * dielectric matrix)
  average eigenvalue GAMMA=   1.2715
  3.0651  2.1557  1.2365  1.0620  0.8759  0.7519  0.6382  0.3865

 Free energy of the ion-electron system (eV)
  ---------------------------------------------------
  alpha Z        PSCENC =         0.33935432
  Ewald energy   TEWEN  =       375.09116614
  -1/2 Hartree   DENC   =      -906.48695587
  -exchange  EXHF       =         0.00000000
  -V(xc)+E(xc)   XCENC  =        53.53906075
  PAW double counting   =       946.37993717     -949.19865857
  entropy T*S    EENTRO =         0.00593004
  eigenvalues    EBANDS =      -179.04875088
  atomic energy  EATOM  =       629.45057577
  ---------------------------------------------------
  free energy    TOTEN  =       -29.92834114 eV

  energy without entropy =      -29.93427117  energy(sigma->0) =      -29.93031782


--------------------------------------------------------------------------------------------------------




----------------------------------------- Iteration    1(  14)  ---------------------------------------


    POTLOK:  cpu time    1.16: real time    1.16
    SETDIJ:  cpu time    0.01: real time    0.01
     EDDAV:  cpu time    5.95: real time    5.96
       DOS:  cpu time    0.00: real time    0.00
    CHARGE:  cpu time    0.29: real time    0.29
    MIXING:  cpu time    0.04: real time    0.04
    --------------------------------------------
      LOOP:  cpu time    7.45: real time    7.48

 eigenvalue-minimisations  :   602
 total energy-change (2. order) :-0.1757041E+00  (-0.1673327E-02)
 number of electron      13.9999989 magnetization       0.0500544
 augmentation part        0.8270530 magnetization       0.0083758

 DIPCOR: dipole corrections for dipol
 direction  3 min pos    88,
 dipolmoment           0.000000      0.000000     -0.141821 electrons x Angstroem
 Tr[quadrupol]       -16.642588

 energy correction for charged system         0.000000 eV
 dipol+quadrupol energy correction           -0.001030 eV
 added-field ion interaction         -0.084418 eV  (added to PSCEN)


 Broyden mixing:
  rms(total) = 0.65106E-02    rms(broyden)= 0.65070E-02
  rms(prec ) = 0.10056E-01
  weight for this iteration     100.00

 eigenvalues of (default mixing * dielectric matrix)
  average eigenvalue GAMMA=   1.3043
  3.7220  2.1295  1.3124  1.0953  0.8749  0.8749  0.7052  0.6354  0.3892

 Free energy of the ion-electron system (eV)
  ---------------------------------------------------
  alpha Z        PSCENC =         0.33200344
  Ewald energy   TEWEN  =       375.09116614
  -1/2 Hartree   DENC   =      -906.71788866
  -exchange  EXHF       =         0.00000000
  -V(xc)+E(xc)   XCENC  =        53.36749804
  PAW double counting   =       943.84962468     -946.66732584
  entropy T*S    EENTRO =         0.00572081
  eigenvalues    EBANDS =      -178.81541964
  atomic energy  EATOM  =       629.45057577
  ---------------------------------------------------
  free energy    TOTEN  =       -30.10404526 eV

  energy without entropy =      -30.10976607  energy(sigma->0) =      -30.10595219


--------------------------------------------------------------------------------------------------------




----------------------------------------- Iteration    1(  15)  ---------------------------------------


    POTLOK:  cpu time    1.18: real time    1.18
    SETDIJ:  cpu time    0.01: real time    0.01
     EDDAV:  cpu time    6.60: real time    6.60
       DOS:  cpu time    0.00: real time    0.00
    CHARGE:  cpu time    0.32: real time    0.32
    MIXING:  cpu time    0.04: real time    0.04
    --------------------------------------------
      LOOP:  cpu time    8.16: real time    8.18

 eigenvalue-minimisations  :   672
 total energy-change (2. order) :-0.2937350E-01  (-0.2157948E-03)
 number of electron      13.9999989 magnetization       0.0239683
 augmentation part        0.8267626 magnetization      -0.0129273

 DIPCOR: dipole corrections for dipol
 direction  3 min pos    88,
 dipolmoment           0.000000      0.000000     -0.150094 electrons x Angstroem
 Tr[quadrupol]       -16.701720

 energy correction for charged system         0.000000 eV
 dipol+quadrupol energy correction           -0.001154 eV
 added-field ion interaction         -0.089342 eV  (added to PSCEN)


 Broyden mixing:
  rms(total) = 0.35816E-02    rms(broyden)= 0.35784E-02
  rms(prec ) = 0.69671E-02
  weight for this iteration     100.00

 eigenvalues of (default mixing * dielectric matrix)
  average eigenvalue GAMMA=   1.3407
  3.9133  2.1143  1.4079  1.4079  0.9837  0.9837  0.8588  0.7213  0.6267  0.3889

 Free energy of the ion-electron system (eV)
  ---------------------------------------------------
  alpha Z        PSCENC =         0.32695541
  Ewald energy   TEWEN  =       375.09116614
  -1/2 Hartree   DENC   =      -906.79220510
  -exchange  EXHF       =         0.00000000
  -V(xc)+E(xc)   XCENC  =        53.33495260
  PAW double counting   =       942.57340282     -945.39103771
  entropy T*S    EENTRO =         0.00551405
  eigenvalues    EBANDS =      -178.73274273
  atomic energy  EATOM  =       629.45057577
  ---------------------------------------------------
  free energy    TOTEN  =       -30.13341876 eV

  energy without entropy =      -30.13893280  energy(sigma->0) =      -30.13525677


--------------------------------------------------------------------------------------------------------




----------------------------------------- Iteration    1(  16)  ---------------------------------------


    POTLOK:  cpu time    1.20: real time    1.20
    SETDIJ:  cpu time    0.01: real time    0.01
     EDDAV:  cpu time    5.88: real time    5.88
       DOS:  cpu time    0.00: real time    0.00
    CHARGE:  cpu time    0.32: real time    0.32
    MIXING:  cpu time    0.05: real time    0.05
    --------------------------------------------
      LOOP:  cpu time    7.47: real time    7.50

 eigenvalue-minimisations  :   602
 total energy-change (2. order) :-0.8282255E-02  (-0.1059441E-03)
 number of electron      13.9999989 magnetization       0.0245926
 augmentation part        0.8266422 magnetization      -0.0154676

 DIPCOR: dipole corrections for dipol
 direction  3 min pos    90,
 dipolmoment           0.000000      0.000000     -0.163304 electrons x Angstroem
 Tr[quadrupol]       -16.748394

 energy correction for charged system         0.000000 eV
 dipol+quadrupol energy correction           -0.001366 eV
 added-field ion interaction         -0.139025 eV  (added to PSCEN)


 Broyden mixing:
  rms(total) = 0.30103E-02    rms(broyden)= 0.30052E-02
  rms(prec ) = 0.47555E-02
  weight for this iteration     100.00

 eigenvalues of (default mixing * dielectric matrix)
  average eigenvalue GAMMA=   1.3678
  4.0338  2.4687  1.9953  1.3153  1.0607  0.8727  0.8727  0.3891  0.7419  0.6771
  0.6190

 Free energy of the ion-electron system (eV)
  ---------------------------------------------------
  alpha Z        PSCENC =         0.27706033
  Ewald energy   TEWEN  =       375.09116614
  -1/2 Hartree   DENC   =      -906.92542267
  -exchange  EXHF       =         0.00000000
  -V(xc)+E(xc)   XCENC  =        53.32448882
  PAW double counting   =       942.67191125     -945.48897705
  entropy T*S    EENTRO =         0.00568651
  eigenvalues    EBANDS =      -178.54819011
  atomic energy  EATOM  =       629.45057577
  ---------------------------------------------------
  free energy    TOTEN  =       -30.14170101 eV

  energy without entropy =      -30.14738752  energy(sigma->0) =      -30.14359651


--------------------------------------------------------------------------------------------------------




----------------------------------------- Iteration    1(  17)  ---------------------------------------


    POTLOK:  cpu time    1.14: real time    1.14
    SETDIJ:  cpu time    0.01: real time    0.01
     EDDAV:  cpu time    6.07: real time    6.08
       DOS:  cpu time    0.00: real time    0.00
    CHARGE:  cpu time    0.30: real time    0.30
    MIXING:  cpu time    0.05: real time    0.05
    --------------------------------------------
      LOOP:  cpu time    7.58: real time    7.61

 eigenvalue-minimisations  :   600
 total energy-change (2. order) : 0.3304046E-03  (-0.1886081E-04)
 number of electron      13.9999989 magnetization       0.0300440
 augmentation part        0.8265418 magnetization      -0.0063100

 DIPCOR: dipole corrections for dipol
 direction  3 min pos    92,
 dipolmoment           0.000000      0.000000     -0.168932 electrons x Angstroem
 Tr[quadrupol]       -16.732601

 energy correction for charged system         0.000000 eV
 dipol+quadrupol energy correction           -0.001462 eV
 added-field ion interaction         -0.187078 eV  (added to PSCEN)


 Broyden mixing:
  rms(total) = 0.25275E-02    rms(broyden)= 0.25232E-02
  rms(prec ) = 0.37370E-02
  weight for this iteration     100.00

 eigenvalues of (default mixing * dielectric matrix)
  average eigenvalue GAMMA=   1.3791
  4.1646  2.7485  2.0664  1.1573  1.1573  1.0151  1.0151  0.3892  0.7841  0.7841
  0.6513  0.6158

 Free energy of the ion-electron system (eV)
  ---------------------------------------------------
  alpha Z        PSCENC =         0.22891119
  Ewald energy   TEWEN  =       375.09116614
  -1/2 Hartree   DENC   =      -907.00991731
  -exchange  EXHF       =         0.00000000
  -V(xc)+E(xc)   XCENC  =        53.32539808
  PAW double counting   =       942.79189972     -945.60896709
  entropy T*S    EENTRO =         0.00550456
  eigenvalues    EBANDS =      -178.41594169
  atomic energy  EATOM  =       629.45057577
  ---------------------------------------------------
  free energy    TOTEN  =       -30.14137061 eV

  energy without entropy =      -30.14687517  energy(sigma->0) =      -30.14320546


--------------------------------------------------------------------------------------------------------




----------------------------------------- Iteration    1(  18)  ---------------------------------------


    POTLOK:  cpu time    1.17: real time    1.17
    SETDIJ:  cpu time    0.02: real time    0.02
     EDDAV:  cpu time    5.75: real time    5.75
       DOS:  cpu time    0.00: real time    0.00
    CHARGE:  cpu time    0.28: real time    0.28
    MIXING:  cpu time    0.05: real time    0.05
    --------------------------------------------
      LOOP:  cpu time    7.28: real time    7.30

 eigenvalue-minimisations  :   570
 total energy-change (2. order) :-0.2426745E-02  (-0.2848342E-04)
 number of electron      13.9999989 magnetization       0.0384469
 augmentation part        0.8266407 magnetization       0.0008257

 DIPCOR: dipole corrections for dipol
 direction  3 min pos    93,
 dipolmoment           0.000000      0.000000     -0.179948 electrons x Angstroem
 Tr[quadrupol]       -16.753242

 energy correction for charged system         0.000000 eV
 dipol+quadrupol energy correction           -0.001659 eV
 added-field ion interaction         -0.222319 eV  (added to PSCEN)


 Broyden mixing:
  rms(total) = 0.13518E-02    rms(broyden)= 0.13511E-02
  rms(prec ) = 0.22466E-02
  weight for this iteration     100.00

 eigenvalues of (default mixing * dielectric matrix)
  average eigenvalue GAMMA=   1.4056
  4.3232  3.0451  2.0948  1.3290  1.3290  1.2138  0.8629  0.8629  0.3892  0.8306
  0.7287  0.6470  0.6167

 Free energy of the ion-electron system (eV)
  ---------------------------------------------------
  alpha Z        PSCENC =         0.19347380
  Ewald energy   TEWEN  =       375.09116614
  -1/2 Hartree   DENC   =      -907.10652988
  -exchange  EXHF       =         0.00000000
  -V(xc)+E(xc)   XCENC  =        53.32388208
  PAW double counting   =       942.92413487     -945.74097104
  entropy T*S    EENTRO =         0.00556262
  eigenvalues    EBANDS =      -178.28509171
  atomic energy  EATOM  =       629.45057577
  ---------------------------------------------------
  free energy    TOTEN  =       -30.14379735 eV

  energy without entropy =      -30.14935997  energy(sigma->0) =      -30.14565156


--------------------------------------------------------------------------------------------------------




----------------------------------------- Iteration    1(  19)  ---------------------------------------


    POTLOK:  cpu time    1.20: real time    1.20
    SETDIJ:  cpu time    0.01: real time    0.01
     EDDAV:  cpu time    5.76: real time    5.77
       DOS:  cpu time    0.00: real time    0.00
    CHARGE:  cpu time    0.28: real time    0.28
    MIXING:  cpu time    0.05: real time    0.05
    --------------------------------------------
      LOOP:  cpu time    7.31: real time    7.34

 eigenvalue-minimisations  :   570
 total energy-change (2. order) :-0.3187058E-02  (-0.1972422E-04)
 number of electron      13.9999989 magnetization       0.0439883
 augmentation part        0.8265691 magnetization       0.0052133

 DIPCOR: dipole corrections for dipol
 direction  3 min pos    93,
 dipolmoment           0.000000      0.000000     -0.192498 electrons x Angstroem
 Tr[quadrupol]       -16.800876

 energy correction for charged system         0.000000 eV
 dipol+quadrupol energy correction           -0.001898 eV
 added-field ion interaction         -0.237823 eV  (added to PSCEN)


 Broyden mixing:
  rms(total) = 0.12999E-02    rms(broyden)= 0.12990E-02
  rms(prec ) = 0.16394E-02
  weight for this iteration     100.00

 eigenvalues of (default mixing * dielectric matrix)
  average eigenvalue GAMMA=   1.4328
  4.5140  3.3629  2.0090  2.0090  1.1657  1.1657  0.9264  0.9264  0.3892  0.7992
  0.7992  0.7358  0.6132  0.6441

 Free energy of the ion-electron system (eV)
  ---------------------------------------------------
  alpha Z        PSCENC =         0.17772988
  Ewald energy   TEWEN  =       375.09116614
  -1/2 Hartree   DENC   =      -907.18737861
  -exchange  EXHF       =         0.00000000
  -V(xc)+E(xc)   XCENC  =        53.32170906
  PAW double counting   =       943.00751782     -945.82429384
  entropy T*S    EENTRO =         0.00561505
  eigenvalues    EBANDS =      -178.18962568
  atomic energy  EATOM  =       629.45057577
  ---------------------------------------------------
  free energy    TOTEN  =       -30.14698441 eV

  energy without entropy =      -30.15259946  energy(sigma->0) =      -30.14885609


--------------------------------------------------------------------------------------------------------




----------------------------------------- Iteration    1(  20)  ---------------------------------------


    POTLOK:  cpu time    1.19: real time    1.20
    SETDIJ:  cpu time    0.01: real time    0.01
     EDDAV:  cpu time    5.69: real time    5.73
       DOS:  cpu time    0.00: real time    0.00
    CHARGE:  cpu time    0.30: real time    0.30
    MIXING:  cpu time    0.06: real time    0.06
    --------------------------------------------
      LOOP:  cpu time    7.27: real time    7.33

 eigenvalue-minimisations  :   590
 total energy-change (2. order) :-0.1577715E-02  (-0.4754877E-05)
 number of electron      13.9999989 magnetization       0.0468373
 augmentation part        0.8264836 magnetization       0.0093404

 DIPCOR: dipole corrections for dipol
 direction  3 min pos    93,
 dipolmoment           0.000000      0.000000     -0.199505 electrons x Angstroem
 Tr[quadrupol]       -16.823583

 energy correction for charged system         0.000000 eV
 dipol+quadrupol energy correction           -0.002039 eV
 added-field ion interaction         -0.246480 eV  (added to PSCEN)


 Broyden mixing:
  rms(total) = 0.64589E-03    rms(broyden)= 0.64311E-03
  rms(prec ) = 0.91371E-03
  weight for this iteration     100.00

 eigenvalues of (default mixing * dielectric matrix)
  average eigenvalue GAMMA=   1.5481
  5.4203  3.9249  2.2672  2.2672  1.3353  1.0753  1.0753  0.3892  0.9891  0.9527
  0.7937  0.7937  0.6838  0.6220  0.6319

 Free energy of the ion-electron system (eV)
  ---------------------------------------------------
  alpha Z        PSCENC =         0.16893231
  Ewald energy   TEWEN  =       375.09116614
  -1/2 Hartree   DENC   =      -907.21779849
  -exchange  EXHF       =         0.00000000
  -V(xc)+E(xc)   XCENC  =        53.32041220
  PAW double counting   =       942.95983402     -945.77652647
  entropy T*S    EENTRO =         0.00554976
  eigenvalues    EBANDS =      -178.15070736
  atomic energy  EATOM  =       629.45057577
  ---------------------------------------------------
  free energy    TOTEN  =       -30.14856212 eV

  energy without entropy =      -30.15411189  energy(sigma->0) =      -30.15041204


--------------------------------------------------------------------------------------------------------




----------------------------------------- Iteration    1(  21)  ---------------------------------------


    POTLOK:  cpu time    1.23: real time    1.23
    SETDIJ:  cpu time    0.02: real time    0.02
     EDDAV:  cpu time    6.03: real time    6.04
       DOS:  cpu time    0.00: real time    0.00
    CHARGE:  cpu time    0.33: real time    0.33
    MIXING:  cpu time    0.06: real time    0.06
    --------------------------------------------
      LOOP:  cpu time    7.67: real time    7.70

 eigenvalue-minimisations  :   630
 total energy-change (2. order) :-0.6347937E-03  (-0.1889427E-05)
 number of electron      13.9999989 magnetization       0.0475866
 augmentation part        0.8264934 magnetization       0.0095970

 DIPCOR: dipole corrections for dipol
 direction  3 min pos    93,
 dipolmoment           0.000000      0.000000     -0.205185 electrons x Angstroem
 Tr[quadrupol]       -16.839828

 energy correction for charged system         0.000000 eV
 dipol+quadrupol energy correction           -0.002156 eV
 added-field ion interaction         -0.253498 eV  (added to PSCEN)


 Broyden mixing:
  rms(total) = 0.27143E-03    rms(broyden)= 0.27107E-03
  rms(prec ) = 0.51521E-03
  weight for this iteration     100.00

 eigenvalues of (default mixing * dielectric matrix)
  average eigenvalue GAMMA=   1.6147
  6.5954  4.0468  2.3838  2.3838  1.5516  1.1153  1.1153  0.3892  1.0142  0.8698
  0.8698  0.8489  0.7588  0.6582  0.6248  0.6098

 Free energy of the ion-electron system (eV)
  ---------------------------------------------------
  alpha Z        PSCENC =         0.16179638
  Ewald energy   TEWEN  =       375.09116614
  -1/2 Hartree   DENC   =      -907.23129518
  -exchange  EXHF       =         0.00000000
  -V(xc)+E(xc)   XCENC  =        53.31960196
  PAW double counting   =       942.86689558     -945.68342047
  entropy T*S    EENTRO =         0.00557415
  eigenvalues    EBANDS =      -178.13009124
  atomic energy  EATOM  =       629.45057577
  ---------------------------------------------------
  free energy    TOTEN  =       -30.14919692 eV

  energy without entropy =      -30.15477107  energy(sigma->0) =      -30.15105497


--------------------------------------------------------------------------------------------------------




----------------------------------------- Iteration    1(  22)  ---------------------------------------


    POTLOK:  cpu time    1.14: real time    1.14
    SETDIJ:  cpu time    0.02: real time    0.02
     EDDAV:  cpu time    5.99: real time    5.99
       DOS:  cpu time    0.00: real time    0.00
    --------------------------------------------
      LOOP:  cpu time    7.15: real time    7.17

 eigenvalue-minimisations  :   610
 total energy-change (2. order) :-0.6826513E-04  (-0.3598231E-06)
 number of electron      13.9999989 magnetization       0.0475866
 augmentation part        0.8264934 magnetization       0.0095970

 DIPCOR: dipole corrections for dipol
 direction  3 min pos    93,
 dipolmoment           0.000000      0.000000     -0.209160 electrons x Angstroem
 Tr[quadrupol]       -16.849609

 energy correction for charged system         0.000000 eV
 dipol+quadrupol energy correction           -0.002241 eV
 added-field ion interaction         -0.258409 eV  (added to PSCEN)


 Free energy of the ion-electron system (eV)
  ---------------------------------------------------
  alpha Z        PSCENC =         0.15680142
  Ewald energy   TEWEN  =       375.09116614
  -1/2 Hartree   DENC   =      -907.23709263
  -exchange  EXHF       =         0.00000000
  -V(xc)+E(xc)   XCENC  =        53.31937831
  PAW double counting   =       942.77426389     -945.59074787
  entropy T*S    EENTRO =         0.00557839
  eigenvalues    EBANDS =      -178.11918861
  atomic energy  EATOM  =       629.45057577
  ---------------------------------------------------
  free energy    TOTEN  =       -30.14926518 eV

  energy without entropy =      -30.15484357  energy(sigma->0) =      -30.15112465


--------------------------------------------------------------------------------------------------------




 average (electrostatic) potential at core
  the test charge radii are     0.6991  0.7215  0.5201
  (the norm of the test charge is              1.0000)
       1 -59.3622       2 -80.3402       3 -41.6364       4 -41.6347       5 -41.7009
       6 -44.3142
 
 
 
 E-fermi :  -5.9706     XC(G=0):  -0.5131     alpha+bet : -0.1779


 spin component 1

 k-point   1 :       0.0000    0.0000    0.2500
  band No.  band energies     occupation 
      1     -25.5278      1.00000
      2     -16.5057      1.00000
      3     -12.3495      1.00000
      4     -10.6073      1.00000
      5     -10.2612      1.00000
      6      -7.7821      1.00000
      7      -6.1301      1.02332
      8      -0.7155      0.00000
      9       0.0240      0.00000
     10       0.2401      0.00000
     11       0.6548      0.00000
     12       0.7427      0.00000
     13       0.9161      0.00000
     14       1.1080      0.00000

 k-point   2 :       0.3333    0.0000    0.2500
  band No.  band energies     occupation 
      1     -25.5278      1.00000
      2     -16.5057      1.00000
      3     -12.3495      1.00000
      4     -10.6073      1.00000
      5     -10.2612      1.00000
      6      -7.7820      1.00000
      7      -6.1301      1.02331
      8      -0.6624      0.00000
      9       0.0193      0.00000
     10       0.2253      0.00000
     11       0.7042      0.00000
     12       0.7457      0.00000
     13       0.7821      0.00000
     14       0.9860      0.00000

 k-point   3 :      -0.3333    0.0000    0.2500
  band No.  band energies     occupation 
      1     -25.5278      1.00000
      2     -16.5057      1.00000
      3     -12.3495      1.00000
      4     -10.6073      1.00000
      5     -10.2612      1.00000
      6      -7.7820      1.00000
      7      -6.1301      1.02331
      8      -0.6629      0.00000
      9       0.0017      0.00000
     10       0.3150      0.00000
     11       0.5227      0.00000
[...]


--------------------------------------------------------------------------------------------------------




 average (electrostatic) potential at core
  the test charge radii are     0.6991  0.7215  0.5201
  (the norm of the test charge is              1.0000)
       1 -59.3763       2 -80.3079       3 -41.7646       4 -41.7675       5 -41.8370
       6 -44.5054
 
 
 
 E-fermi :  -6.0612     XC(G=0):  -0.4907     alpha+bet : -0.1549


 spin component 1

 k-point   1 :       0.0000    0.0000    0.2500
  band No.  band energies     occupation 
      1     -25.3383      1.00000
      2     -16.7128      1.00000
      3     -12.3561      1.00000
      4     -10.4921      1.00000
      5     -10.2001      1.00000
      6      -7.8819      1.00000
      7      -6.2227      1.02240
      8      -0.6917      0.00000
      9       0.0197      0.00000
     10       0.3267      0.00000
     11       0.6531      0.00000
     12       0.7341      0.00000
     13       0.8939      0.00000
     14       1.1244      0.00000

 k-point   2 :       0.3333    0.0000    0.2500
  band No.  band energies     occupation 
      1     -25.3383      1.00000
      2     -16.7128      1.00000
      3     -12.3561      1.00000
      4     -10.4921      1.00000
      5     -10.2001      1.00000
      6      -7.8818      1.00000
      7      -6.2227      1.02240
      8      -0.6315      0.00000
      9      -0.0364      0.00000
     10       0.3069      0.00000
     11       0.7300      0.00000
     12       0.7804      0.00000
     13       0.8636      0.00000
     14       0.9945      0.00000

 k-point   3 :      -0.3333    0.0000    0.2500
  band No.  band energies     occupation 
      1     -25.3383      1.00000
      2     -16.7128      1.00000
      3     -12.3561      1.00000
      4     -10.4921      1.00000
      5     -10.2001      1.00000
      6      -7.8818      1.00000
      7      -6.2227      1.02239
      8      -0.6321      0.00000
      9      -0.0430      0.00000
     10       0.3829      0.00000
     11       0.5793      0.00000
     12       0.7644      0.00000
     13       0.8887      0.00000
     14       1.0315      0.00000

 k-point   4 :       0.0000    0.3333    0.2500
  band No.  band energies     occupation 
      1     -25.3383      1.00000
      2     -16.7128      1.00000
      3     -12.3561      1.00000
      4     -10.4921      1.00000
      5     -10.2001      1.00000
      6      -7.8819      1.00000
      7      -6.2227      1.02241
      8      -0.6577      0.00000
      9       0.0603      0.00000
     10       0.2457      0.00000
     11       0.4450      0.00000
     12       0.7344      0.00000
     13       0.8935      0.00000
     14       1.1645      0.00000

 k-point   5 :       0.3333    0.3333    0.2500
  band No.  band energies     occupation 
      1     -25.3383      1.00000
      2     -16.7128      1.00000
      3     -12.3561      1.00000
      4     -10.4921      1.00000
      5     -10.2001      1.00000
      6      -7.8818      1.00000
      7      -6.2227      1.02240
      8      -0.6040      0.00000
      9       0.0118      0.00000
     10       0.3248      0.00000
     11       0.4567      0.00000
     12       0.8035      0.00000
     13       0.8858      0.00000
     14       0.9512      0.00000

 k-point   6 :      -0.3333    0.3333    0.2500
  band No.  band energies     occupation 
      1     -25.3383      1.00000
      2     -16.7128      1.00000
      3     -12.3561      1.00000
      4     -10.4921      1.00000
      5     -10.2001      1.00000
      6      -7.8818      1.00000
      7      -6.2227      1.02240
      8      -0.6051      0.00000
      9       0.0031      0.00000
     10       0.3684      0.00000
     11       0.4829      0.00000
     12       0.6834      0.00000
     13       0.9106      0.00000
     14       0.9612      0.00000

 k-point   7 :       0.0000   -0.3333    0.2500
  band No.  band energies     occupation 
      1     -25.3383      1.00000
      2     -16.7128      1.00000
      3     -12.3561      1.00000
      4     -10.4921      1.00000
      5     -10.2001      1.00000
      6      -7.8819      1.00000
      7      -6.2227      1.02241
      8      -0.6577      0.00000
      9       0.0697      0.00000
     10       0.2144      0.00000
     11       0.4841      0.00000
     12       0.7204      0.00000
     13       0.8904      0.00000
     14       1.1617      0.00000

 k-point   8 :       0.3333   -0.3333    0.2500
  band No.  band energies     occupation 
      1     -25.3383      1.00000
      2     -16.7128      1.00000
      3     -12.3561      1.00000
      4     -10.4921      1.00000
      5     -10.2001      1.00000
      6      -7.8818      1.00000
      7      -6.2227      1.02240
      8      -0.6046      0.00000
      9       0.0080      0.00000
     10       0.3500      0.00000
     11       0.4412      0.00000
     12       0.8036      0.00000
     13       0.8748      0.00000
     14       0.9475      0.00000

 k-point   9 :      -0.3333   -0.3333    0.2500
  band No.  band energies     occupation 
      1     -25.3383      1.00000
      2     -16.7128      1.00000
      3     -12.3561      1.00000
      4     -10.4921      1.00000
      5     -10.2001      1.00000
      6      -7.8818      1.00000
      7      -6.2227      1.02240
      8      -0.6045      0.00000
      9       0.0080      0.00000
     10       0.3404      0.00000
     11       0.4817      0.00000
     12       0.7276      0.00000
     13       0.8973      0.00000
     14       0.9561      0.00000

 spin component 2

 k-point   1 :       0.0000    0.0000    0.2500
  band No.  band energies     occupation 
      1     -25.2972      1.00000
      2     -16.7012      1.00000
      3     -12.3408      1.00000
      4     -10.4631      1.00000
      5     -10.1920      1.00000
      6      -7.8647      1.00000
      7      -6.1367      0.97758
      8      -0.6880      0.00000
      9       0.0313      0.00000
     10       0.3528      0.00000
     11       0.6598      0.00000
     12       0.7511      0.00000
     13       0.9078      0.00000
     14       1.1339      0.00000

 k-point   2 :       0.3333    0.0000    0.2500
  band No.  band energies     occupation 
      1     -25.2972      1.00000
      2     -16.7012      1.00000
      3     -12.3408      1.00000
      4     -10.4631      1.00000
      5     -10.1920      1.00000
      6      -7.8647      1.00000
      7      -6.1367      0.97763
      8      -0.6283      0.00000
      9      -0.0302      0.00000
     10       0.3308      0.00000
     11       0.7393      0.00000
     12       0.7951      0.00000
     13       0.8913      0.00000
     14       1.0129      0.00000

 k-point   3 :      -0.3333    0.0000    0.2500
  band No.  band energies     occupation 
      1     -25.2972      1.00000
      2     -16.7012      1.00000
      3     -12.3408      1.00000
      4     -10.4631      1.00000
      5     -10.1920      1.00000
      6      -7.8647      1.00000
      7      -6.1367      0.97763
      8      -0.6289      0.00000
      9      -0.0358      0.00000
     10       0.4009      0.00000
     11       0.6070      0.00000
     12       0.7705      0.00000
     13       0.9143      0.00000
     14       1.0447      0.00000

 k-point   4 :       0.0000    0.3333    0.2500
  band No.  band energies     occupation 
      1     -25.2971      1.00000
      2     -16.7012      1.00000
      3     -12.3408      1.00000
      4     -10.4631      1.00000
      5     -10.1920      1.00000
      6      -7.8647      1.00000
      7      -6.1367      0.97755
      8      -0.6548      0.00000
      9       0.0708      0.00000
     10       0.2604      0.00000
     11       0.4686      0.00000
     12       0.7607      0.00000
     13       0.9119      0.00000
     14       1.1686      0.00000

 k-point   5 :       0.3333    0.3333    0.2500
  band No.  band energies     occupation 
      1     -25.2971      1.00000
      2     -16.7012      1.00000
      3     -12.3408      1.00000
      4     -10.4631      1.00000
      5     -10.1920      1.00000
      6      -7.8647      1.00000
      7      -6.1367      0.97761
      8      -0.6013      0.00000
      9       0.0168      0.00000
     10       0.3428      0.00000
     11       0.4710      0.00000
     12       0.8307      0.00000
     13       0.9097      0.00000
     14       0.9741      0.00000

 k-point   6 :      -0.3333    0.3333    0.2500
  band No.  band energies     occupation 
      1     -25.2971      1.00000
      2     -16.7012      1.00000
      3     -12.3408      1.00000
      4     -10.4631      1.00000
      5     -10.1920      1.00000
      6      -7.8647      1.00000
      7      -6.1367      0.97762
      8      -0.6024      0.00000
      9       0.0090      0.00000
     10       0.3830      0.00000
     11       0.4964      0.00000
     12       0.7116      0.00000
     13       0.9420      0.00000
     14       0.9796      0.00000

 k-point   7 :       0.0000   -0.3333    0.2500
  band No.  band energies     occupation 
      1     -25.2971      1.00000
      2     -16.7012      1.00000
      3     -12.3408      1.00000
      4     -10.4631      1.00000
      5     -10.1920      1.00000
      6      -7.8647      1.00000
      7      -6.1367      0.97755
      8      -0.6547      0.00000
      9       0.0787      0.00000
     10       0.2331      0.00000
     11       0.5036      0.00000
     12       0.7477      0.00000
     13       0.9098      0.00000
     14       1.1661      0.00000

 k-point   8 :       0.3333   -0.3333    0.2500
  band No.  band energies     occupation 
      1     -25.2971      1.00000
      2     -16.7012      1.00000
      3     -12.3408      1.00000
      4     -10.4631      1.00000
      5     -10.1920      1.00000
      6      -7.8647      1.00000
      7      -6.1367      0.97762
      8      -0.6018      0.00000
      9       0.0131      0.00000
     10       0.3678      0.00000
     11       0.4562      0.00000
     12       0.8287      0.00000
     13       0.8967      0.00000
     14       0.9744      0.00000

 k-point   9 :      -0.3333   -0.3333    0.2500
  band No.  band energies     occupation 
      1     -25.2971      1.00000
      2     -16.7012      1.00000
      3     -12.3408      1.00000
      4     -10.4631      1.00000
      5     -10.1920      1.00000
      6      -7.8647      1.00000
      7      -6.1367      0.97761
      8      -0.6018      0.00000
      9       0.0136      0.00000
     10       0.3565      0.00000
     11       0.4949      0.00000
     12       0.7554      0.00000
     13       0.9262      0.00000
     14       0.9770      0.00000


--------------------------------------------------------------------------------------------------------


 soft charge-density along one line, spin component           1
         0         1         2         3         4         5         6         7         8         9
 total charge-density along one line
 
 soft charge-density along one line, spin component           2
         0         1         2         3         4         5         6         7         8         9
 total charge-density along one line
 
 pseudopotential strength for first ion, spin component:           1
 10.284  13.678   0.001   0.002  -0.006  -0.003  -0.005   0.016
 13.678  18.191   0.001   0.002  -0.007  -0.004  -0.007   0.021
  0.001   0.001  -4.408  -0.001   0.002   8.628   0.001  -0.004
  0.002   0.002  -0.001  -4.408   0.003   0.001   8.629  -0.006
 -0.006  -0.007   0.002   0.003  -4.417  -0.004  -0.006   8.648
 -0.003  -0.004   8.628   0.001  -0.004 -19.030  -0.002   0.007
 -0.005  -0.007   0.001   8.629  -0.006  -0.002 -19.032   0.014
  0.016   0.021  -0.004  -0.006   8.648   0.007   0.014 -19.072
 pseudopotential strength for first ion, spin component:           2
 10.284  13.678   0.001   0.002  -0.006  -0.003  -0.006   0.016
 13.678  18.191   0.001   0.003  -0.007  -0.004  -0.007   0.021
  0.001   0.001  -4.407  -0.001   0.002   8.628   0.001  -0.004
  0.002   0.003  -0.001  -4.408   0.003   0.001   8.629  -0.007
 -0.006  -0.007   0.002   0.003  -4.418  -0.004  -0.007   8.648
 -0.003  -0.004   8.628   0.001  -0.004 -19.029  -0.002   0.008
 -0.006  -0.007   0.001   8.629  -0.007  -0.002 -19.032   0.014
  0.016   0.021  -0.004  -0.007   8.648   0.008   0.014 -19.073
 total augmentation occupancy for first ion, spin component:           1
  7.324  -3.144   0.000  -0.025  -0.008   0.006   0.005  -0.034
 -3.144   1.389  -0.015  -0.014   0.093  -0.005  -0.006   0.030
  0.000  -0.015   1.624  -0.015   0.041   0.124   0.000  -0.002
 -0.025  -0.014  -0.015   1.628   0.087   0.000   0.124  -0.002
 -0.008   0.093   0.041   0.087   1.392  -0.002  -0.002   0.134
  0.006  -0.005   0.124   0.000  -0.002   0.010   0.000  -0.001
  0.005  -0.006   0.000   0.124  -0.002   0.000   0.010  -0.001
 -0.034   0.030  -0.002  -0.002   0.134  -0.001  -0.001   0.015
 total augmentation occupancy for first ion, spin component:           2
  0.001  -0.001  -0.000   0.000   0.001  -0.000   0.000   0.000
 -0.001   0.000   0.000  -0.000  -0.000   0.000  -0.000  -0.000
 -0.000   0.000   0.004  -0.000   0.001   0.000  -0.000   0.000
  0.000  -0.000  -0.000  -0.000   0.000  -0.000   0.000   0.000
  0.001  -0.000   0.001   0.000  -0.001   0.000   0.000   0.000
 -0.000   0.000   0.000  -0.000   0.000   0.000  -0.000  -0.000
  0.000  -0.000  -0.000   0.000   0.000  -0.000   0.000   0.000
  0.000  -0.000   0.000   0.000   0.000  -0.000   0.000   0.000


------------------------ aborting loop because EDIFF is reached ----------------------------------------


    CHARGE:  cpu time    0.21: real time    0.21
    FORLOC:  cpu time    0.05: real time    0.05
    FORNL :  cpu time    0.95: real time    0.95
    STRESS:  cpu time    2.93: real time    2.93
    FORCOR:  cpu time    0.91: real time    0.91
    FORHAR:  cpu time    0.12: real time    0.12
    MIXING:  cpu time    0.02: real time    0.02

  FORCE on cell =-STRESS in cart. coord.  units (eV):
  Direction    XX          YY          ZZ          XY          YZ          ZX
  --------------------------------------------------------------------------------------
  Alpha Z     0.41745     0.41745     0.41745
  Ewald     313.69628    14.07875    42.76098   -42.88070    15.70720   -88.01785
  Hartree   451.33347   254.92337   196.71527   -24.69841     8.63242   -48.56434
  E(xc)     -57.18568   -57.55911   -57.13583    -0.06658     0.02271    -0.12455
  Local    -904.90969  -427.40268  -368.83948    64.27910   -23.11682   129.96569
  n-local   -38.25524   -41.32147   -40.81715    -0.54170     0.21519    -1.19532
  augment     6.37202     8.03003     6.01787     0.29543    -0.09611     0.52016
  Kinetic   228.43641   248.72739   220.80789     3.61433    -1.36249     7.44439
  Fock        0.00000     0.00000     0.00000     0.00000     0.00000     0.00000
  -------------------------------------------------------------------------------------
  Total      -0.09499    -0.10627    -0.07299     0.00148     0.00212     0.02817
  in kB      -0.08492    -0.09500    -0.06525     0.00132     0.00189     0.02518
  external pressure =       -0.08 kB  Pullay stress =        0.00 kB


 VOLUME and BASIS-vectors are now :
 -----------------------------------------------------------------------------
  energy-cutoff  :      500.00
  volume of cell :     1792.22
      direct lattice vectors                 reciprocal lattice vectors
    10.160000000  0.000000000  0.000000000     0.098425197  0.000000000  0.000000000
     0.000000000 11.760000000  0.000000000     0.000000000  0.085034014  0.000000000
     0.000000000  0.000000000 15.000000000     0.000000000  0.000000000  0.066666667

  length of vectors
    10.160000000 11.760000000 15.000000000     0.098425197  0.085034014  0.066666667


 FORCES acting on ions
    electron-ion (+dipol)            ewald-force                    non-local-force                 convergence-correction
 -----------------------------------------------------------------------------------------------
   -.117E+03 0.205E+02 0.375E+02   0.123E+03 -.214E+02 -.393E+02   -.530E+01 0.918E+00 0.181E+01   0.136E-02 -.440E-03 0.356E-02
   0.166E+03 -.289E+02 -.207E+01   -.201E+03 0.348E+02 -.288E+02   0.348E+02 -.590E+01 0.308E+02   -.659E-02 0.376E-02 -.112E-02
   -.312E+02 0.557E+02 -.155E+02   0.330E+02 -.606E+02 0.172E+02   -.189E+01 0.492E+01 -.171E+01   0.243E-04 0.370E-04 0.500E-03
   -.479E+02 -.418E+02 -.156E+02   0.513E+02 0.458E+02 0.173E+02   -.344E+01 -.399E+01 -.172E+01   0.149E-03 -.133E-03 0.492E-03
   -.121E+02 0.212E+01 0.663E+02   0.121E+02 -.213E+01 -.720E+02   -.686E-01 0.110E-01 0.573E+01   0.272E-03 -.830E-04 -.628E-03
   0.178E+02 -.339E+01 -.972E+02   -.185E+02 0.353E+01 0.106E+03   0.644E+00 -.134E+00 -.831E+01   -.296E-03 0.218E-03 -.541E-03
 -----------------------------------------------------------------------------------------------
   -.247E+02 0.419E+01 -.266E+02   -.355E-13 -.888E-14 -.284E-13   0.247E+02 -.418E+01 0.266E+02   -.508E-02 0.336E-02 0.227E-02
 
 
 POSITION                                       TOTAL-FORCE (eV/Angst)
 -----------------------------------------------------------------------------------
      1.33962     11.52585     14.62077        -0.000927     -0.000851      0.000487
     -0.01550      0.00005      0.01585        -0.002581      0.004717      0.004615
      1.71335     10.54859     14.97253         0.002344      0.003560     -0.001155
      2.02042      0.55969     14.97343         0.000980     -0.004062     -0.000997
      1.34979     11.52429     13.52382        -0.005310      0.000112     -0.000496
     -0.05382      0.00928      0.98654         0.005493     -0.003475     -0.002455
 -----------------------------------------------------------------------------------
    total drift:                                0.019825      0.011506      0.009888


--------------------------------------------------------------------------------------------------------



  FREE ENERGIE OF THE ION-ELECTRON SYSTEM (eV)
  ---------------------------------------------------
  free  energy   TOTEN  =       -30.20215856 eV

  energy  without entropy=      -30.20765913  energy(sigma->0) =      -30.20399208
 
 d Force = 0.2551788E-05[ 0.469E-06, 0.463E-05]  d Energy = 0.3127763E-05-0.576E-06
 d Force =-0.1969361E-01[-0.197E-01,-0.197E-01]  d Ewald  =-0.1969361E-01 0.110E-09


--------------------------------------------------------------------------------------------------------


    POTLOK:  cpu time    0.95: real time    0.95


--------------------------------------------------------------------------------------------------------




--------------------------------------------------------------------------------------------------------


  
 reached required accuracy - stopping structural energy minimisation
     LOOP+:  cpu time   15.74: real time   15.76
    4ORBIT:  cpu time    0.00: real time    0.00

 total amount of memory used by VASP on root node   158413. kBytes
========================================================================

   base      :      30000. kBytes
   nonlr-proj:        194. kBytes
   fftplans  :      22744. kBytes
   grid      :      59551. kBytes
   one-center:         12. kBytes
   wavefun   :      45912. kBytes
 
  
  
 General timing and accounting informations for this job:
 ========================================================
  
                  Total CPU time used (sec):      982.629
                            User time (sec):      974.826
                          System time (sec):        7.802
                         Elapsed time (sec):      986.036
  
                   Maximum memory used (kb):      258032.
                   Average memory used (kb):           0.
  
                          Minor page faults:      2934058
                          Major page faults:           23
                 Voluntary context switches:         3038
