<?xml version="1.0" encoding="ISO-8859-1"?>
<modeling>
 <generator>
  <i name="program" type="string">vasp </i>
  <i name="version" type="string">5.3.3  </i>
  <i name="subversion" type="string">18Dez12 (build Aug 26 2015 16:06:49) complex                          parallel </i>
  <i name="platform" type="string">LinuxIFC </i>
  <i name="date" type="string">2020 05 04 </i>
  <i name="time" type="string">00:35:28 </i>
 </generator>
 <incar>
  <i type="string" name="SYSTEM"> Beta12Borophene !The name of the system</i>
  <i type="string" name="PREC">normal   !normal or accurate</i>
  <i type="string" name="ALGO"> Normal   !def=Normal. Sets IALGO and LD</i>
  <i type="int" name="ISPIN">     2</i>
  <i type="int" name="NELM">    60</i>
  <i type="int" name="IBRION">     2</i>
  <i name="EDIFFG">     -0.01000000</i>
  <i type="int" name="NSW">  1000</i>
  <i type="int" name="ISIF">     2</i>
  <i name="ENCUT">    500.00000000</i>
  <i name="POTIM">      0.50000000</i>
  <i type="string" name="LREAL"> Auto   !values=.FALSE. or Auto  (def=.F</i>
  <i type="int" name="ISMEAR">     1</i>
  <i name="SIGMA">      0.10000000</i>
  <i type="logical" name="LWAVE"> F  </i>
  <i type="logical" name="LCHARG"> F  </i>
  <i type="logical" name="LVTOT"> F  </i>
  <i type="logical" name="LELF"> F  </i>
  <i type="int" name="NELM">    60</i>
  <i type="string" name="GGA"> PE   !GGA flavor: PE=PBE, RP=RPBE, RE=r</i>
  <i type="logical" name="LDIPOL"> T  </i>
  <i type="int" name="IDIPOL">     3</i>
 </incar>
 <kpoints>
  <generation param="Monkhorst-Pack">
   <v type="int" name="divisions">       3        3        2 </v>
   <v name="usershift">      0.00000000       0.00000000       0.00000000 </v>
   <v name="genvec1">      0.33333333       0.00000000       0.00000000 </v>
   <v name="genvec2">      0.00000000       0.33333333       0.00000000 </v>
   <v name="genvec3">      0.00000000       0.00000000       0.50000000 </v>
   <v name="shift">      0.00000000       0.00000000       0.50000000 </v>
  </generation>
  <varray name="kpointlist" >
   <v>       0.00000000       0.00000000       0.25000000 </v>
   <v>       0.33333333       0.00000000       0.25000000 </v>
   <v>      -0.33333333       0.00000000       0.25000000 </v>
   <v>       0.00000000       0.33333333       0.25000000 </v>
   <v>       0.33333333       0.33333333       0.25000000 </v>
   <v>      -0.33333333       0.33333333       0.25000000 </v>
   <v>       0.00000000      -0.33333333       0.25000000 </v>
   <v>       0.33333333      -0.33333333       0.25000000 </v>
   <v>      -0.33333333      -0.33333333       0.25000000 </v>
  </varray>
  <varray name="weights" >
   <v>       0.11111111 </v>
   <v>       0.11111111 </v>
   <v>       0.11111111 </v>
   <v>       0.11111111 </v>
   <v>       0.11111111 </v>
   <v>       0.11111111 </v>
   <v>       0.11111111 </v>
   <v>       0.11111111 </v>
   <v>       0.11111111 </v>
  </varray>
 </kpoints>
 <parameters>
  <separator name="general" >
   <i type="string" name="SYSTEM">Beta12Borophene !The name of the system</i>
   <i type="logical" name="LCOMPAT"> F  </i>
  </separator>
  <separator name="electronic" >
   <i type="string" name="PREC">normal</i>
   <i name="ENMAX">    500.00000000</i>
   <i name="ENAUG">    644.87300000</i>
   <i name="EDIFF">      0.00010000</i>
   <i type="int" name="IALGO">    38</i>
   <i type="int" name="IWAVPR">    11</i>
   <i type="int" name="NBANDS">    14</i>
   <i name="NELECT">     14.00000000</i>
   <i type="int" name="TURBO">     0</i>
   <i type="int" name="IRESTART">     0</i>
   <i type="int" name="NREBOOT">     0</i>
   <i type="int" name="NMIN">     0</i>
   <i name="EREF">      0.00000000</i>
   <separator name="electronic smearing" >
    <i type="int" name="ISMEAR">     1</i>
    <i name="SIGMA">      0.10000000</i>
    <i name="KSPACING">      0.50000000</i>
    <i type="logical" name="KGAMMA"> T  </i>
   </separator>
   <separator name="electronic projectors" >
    <i type="logical" name="LREAL"> T  </i>
    <v name="ROPT">     -0.00050000     -0.00050000     -0.00050000</v>
    <i type="int" name="LMAXPAW">  -100</i>
    <i type="int" name="LMAXMIX">     2</i>
    <i type="logical" name="NLSPLINE"> F  </i>
   </separator>
   <separator name="electronic startup" >
    <i type="int" name="ISTART">     0</i>
    <i type="int" name="ICHARG">     2</i>
    <i type="int" name="INIWAV">     1</i>
   </separator>
   <separator name="electronic spin" >
    <i type="int" name="ISPIN">     2</i>
    <i type="logical" name="LNONCOLLINEAR"> F  </i>
    <v name="MAGMOM">      1.00000000      1.00000000      1.00000000      1.00000000      1.00000000      1.00000000</v>
    <i name="NUPDOWN">     -1.00000000</i>
    <i type="logical" name="LSORBIT"> F  </i>
    <v name="SAXIS">      0.00000000      0.00000000      1.00000000</v>
    <i type="logical" name="LSPIRAL"> F  </i>
    <v name="QSPIRAL">      0.00000000      0.00000000      0.00000000</v>
    <i type="logical" name="LZEROZ"> F  </i>
   </separator>
   <separator name="electronic exchange-correlation" >
    <i type="logical" name="LASPH"> F  </i>
    <i type="logical" name="LMETAGGA"> F  </i>
   </separator>
   <separator name="electronic convergence" >
    <i type="int" name="NELM">    60</i>
    <i type="int" name="NELMDL">    -5</i>
    <i type="int" name="NELMIN">     2</i>
    <i name="ENINI">    500.00000000</i>
    <separator name="electronic convergence detail" >
     <i type="logical" name="LDIAG"> T  </i>
     <i type="logical" name="LSUBROT"> T  </i>
     <i name="WEIMIN">      0.00100000</i>
     <i name="EBREAK">      0.00000179</i>
     <i name="DEPER">      0.30000000</i>
     <i type="int" name="NRMM">     4</i>
     <i name="TIME">      0.40000000</i>
    </separator>
   </separator>
   <separator name="electronic mixer" >
    <i name="AMIX">      0.40000000</i>
    <i name="BMIX">      1.00000000</i>
    <i name="AMIN">      0.10000000</i>
    <i name="AMIX_MAG">      1.60000000</i>
    <i name="BMIX_MAG">      1.00000000</i>
    <separator name="electronic mixer details" >
     <i type="int" name="IMIX">     4</i>
     <i type="int" name="MAXMIX">   -45</i>
     <i name="WC">    100.00000000</i>
     <i type="int" name="INIMIX">     1</i>
     <i type="int" name="MIXPRE">     1</i>
     <i type="int" name="MREMOVE">     5</i>
    </separator>
   </separator>
   <separator name="electronic dipolcorrection" >
    <i type="logical" name="LDIPOL"> T  </i>
    <i type="logical" name="LMONO"> F  </i>
    <i type="int" name="IDIPOL">     3</i>
    <i name="EPSILON">      1.00000000</i>
    <v name="DIPOL">   -100.00000000   -100.00000000   -100.00000000</v>
    <i name="EFIELD">      0.00000000</i>
   </separator>
  </separator>
  <separator name="grids" >
   <i type="int" name="NGX">    56</i>
   <i type="int" name="NGY">    64</i>
   <i type="int" name="NGZ">    84</i>
   <i type="int" name="NGXF">   112</i>
   <i type="int" name="NGYF">   128</i>
   <i type="int" name="NGZF">   168</i>
   <i type="logical" name="ADDGRID"> F  </i>
  </separator>
  <separator name="ionic" >
   <i type="int" name="NSW">  1000</i>
   <i type="int" name="IBRION">     2</i>
   <i type="int" name="ISIF">     2</i>
   <i name="PSTRESS">      0.00000000</i>
   <i name="EDIFFG">     -0.01000000</i>
   <i type="int" name="NFREE">     1</i>
   <i name="POTIM">      0.50000000</i>
   <i name="SMASS">     -3.00000000</i>
   <i name="SCALEE">      1.00000000</i>
  </separator>
  <separator name="ionic md" >
   <i name="TEBEG">      0.00010000</i>
   <i name="TEEND">      0.00010000</i>
   <i type="int" name="NBLOCK">     1</i>
   <i type="int" name="KBLOCK">  1000</i>
   <i type="int" name="NPACO">   256</i>
   <i name="APACO">     16.00000000</i>
  </separator>
  <separator name="symmetry" >
   <i type="int" name="ISYM">     2</i>
   <i name="SYMPREC">      0.00001000</i>
  </separator>
  <separator name="dos" >
   <i type="logical" name="LORBIT"> F  </i>
   <v name="RWIGS">     -1.00000000     -1.00000000     -1.00000000</v>
   <i type="int" name="NEDOS">   301</i>
   <i name="EMIN">     10.00000000</i>
   <i name="EMAX">    -10.00000000</i>
   <i name="EFERMI">      0.00000000</i>
  </separator>
  <separator name="writing" >
   <i type="int" name="NWRITE">     2</i>
   <i type="logical" name="LWAVE"> F  </i>
   <i type="logical" name="LCHARG"> F  </i>
   <i type="logical" name="LPARD"> F  </i>
   <i type="logical" name="LVTOT"> F  </i>
   <i type="logical" name="LVHAR"> F  </i>
   <i type="logical" name="LELF"> F  </i>
   <i type="logical" name="LOPTICS"> F  </i>
   <v name="STM">      0.00000000      0.00000000      0.00000000      0.00000000      0.00000000      0.00000000      0.00000000</v>
  </separator>
  <separator name="performance" >
   <i type="int" name="NPAR">     1</i>
   <i type="int" name="NSIM">     4</i>
   <i type="int" name="NBLK">    -1</i>
   <i type="logical" name="LPLANE"> T  </i>
   <i type="logical" name="LSCALAPACK"> T  </i>
   <i type="logical" name="LSCAAWARE"> F  </i>
   <i type="logical" name="LSCALU"> F  </i>
   <i type="logical" name="LASYNC"> F  </i>
   <i type="logical" name="LORBITALREAL"> F  </i>
  </separator>
  <separator name="miscellaneous" >
   <i type="int" name="IDIOT">     3</i>
   <i type="logical" name="LMUSIC"> F  </i>
   <v name="POMASS">     12.01100000     16.00000000      1.00000000</v>
   <v name="DARWINR">      0.00000000      0.00000000      0.00000000</v>
   <v name="DARWINV">      1.00000000      1.00000000      1.00000000</v>
   <i type="logical" name="LCORR"> T  </i>
  </separator>
  <i type="logical" name="GGA_COMPAT"> T  </i>
  <i type="logical" name="LBERRY"> F  </i>
  <i type="int" name="ICORELEVEL">     0</i>
  <i type="logical" name="LDAU"> F  </i>
  <i type="int" name="I_CONSTRAINED_M">     0</i>
  <separator name="electronic exchange-correlation" >
   <i type="string" name="GGA">PE</i>
   <i type="int" name="VOSKOWN">     0</i>
   <i type="logical" name="LHFCALC"> F  </i>
   <i type="string" name="PRECFOCK"></i>
   <i type="logical" name="LSYMGRAD"> F  </i>
   <i type="logical" name="LHFONE"> F  </i>
   <i type="logical" name="LRHFCALC"> F  </i>
   <i type="logical" name="LTHOMAS"> F  </i>
   <i type="logical" name="LMODELHF"> F  </i>
   <i name="ENCUT4O">     -1.00000000</i>
   <i type="int" name="EXXOEP">     0</i>
   <i type="int" name="FOURORBIT">     0</i>
   <i name="AEXX">      0.00000000</i>
   <i name="HFALPHA">      0.00000000</i>
   <i name="MCALPHA">      0.00000000</i>
   <i name="ALDAX">      1.00000000</i>
   <i name="AGGAX">      1.00000000</i>
   <i name="ALDAC">      1.00000000</i>
   <i name="AGGAC">      1.00000000</i>
   <i type="int" name="NKREDX">     1</i>
   <i type="int" name="NKREDY">     1</i>
   <i type="int" name="NKREDZ">     1</i>
   <i type="logical" name="SHIFTRED"> F  </i>
   <i type="logical" name="ODDONLY"> F  </i>
   <i type="logical" name="EVENONLY"> F  </i>
   <i type="int" name="LMAXFOCK">     0</i>
   <i type="int" name="NMAXFOCKAE">     0</i>
   <i type="logical" name="LFOCKAEDFT"> F  </i>
   <i name="HFSCREEN">      0.00000000</i>
   <i name="HFSCREENC">      0.00000000</i>
   <i type="int" name="NBANDSGWLOW">     0</i>
  </separator>
  <separator name="vdW DFT" >
   <i type="logical" name="LUSE_VDW"> F  </i>
   <i name="Zab_VDW">     -0.84910000</i>
   <i name="PARAM1">      0.12340000</i>
   <i name="PARAM2">      1.00000000</i>
   <i name="PARAM3">      0.00000000</i>
  </separator>
  <separator name="model GW" >
   <i type="int" name="MODEL_GW">     0</i>
   <i name="MODEL_EPS0">    179.22240000</i>
   <i name="MODEL_ALPHA">      1.00000000</i>
  </separator>
  <separator name="linear response parameters" >
   <i type="logical" name="LEPSILON"> F  </i>
   <i type="logical" name="LRPA"> F  </i>
   <i type="logical" name="LNABLA"> F  </i>
   <i type="logical" name="LVEL"> F  </i>
   <i type="int" name="KINTER">     0</i>
   <i name="CSHIFT">      0.10000000</i>
   <i name="OMEGAMAX">     -1.00000000</i>
   <i name="DEG_THRESHOLD">      0.00200000</i>
  </separator>
  <separator name="orbital magnetization" >
   <i type="logical" name="NUCIND"> F  </i>
   <v name="MAGPOS">      0.00000000      0.00000000      0.00000000</v>
   <i type="logical" name="LNICSALL"> T  </i>
   <i type="logical" name="ORBITALMAG"> F  </i>
   <i type="logical" name="LMAGBLOCH"> F  </i>
   <i type="logical" name="LCHIMAG"> F  </i>
   <i type="logical" name="LGAUGE"> T  </i>
   <i type="int" name="MAGATOM">     0</i>
   <v name="MAGDIPOL">      0.00000000      0.00000000      0.00000000</v>
   <v name="AVECCONST">      0.00000000      0.00000000      0.00000000</v>
  </separator>
  <separator name="response functions" >
   <i type="logical" name="LADDER"> F  </i>
   <i type="logical" name="LFXC"> F  </i>
   <i type="logical" name="LHARTREE"> T  </i>
   <i type="int" name="IBSE">     0</i>
   <i type="logical" name="LTCTE"> F  </i>
   <i type="logical" name="LTETE"> F  </i>
   <i type="logical" name="LTRIPLET"> F  </i>
   <i type="logical" name="LFXCEPS"> F  </i>
   <i type="logical" name="L2ORDER"> F  </i>
   <i type="logical" name="LUSEW"> F  </i>
   <i name="ENCUTGW">     -2.00000000</i>
   <i name="ENCUTGWSOFT">     -2.00000000</i>
   <i name="ENCUTLF">     -1.00000000</i>
   <i type="int" name="LMAXMP2">    -1</i>
   <i name="SCISSOR">      0.00000000</i>
   <i type="int" name="NOMEGA">     0</i>
   <i type="int" name="NOMEGAR">     0</i>
   <i type="int" name="NBANDSGW">    -1</i>
   <i type="int" name="NBANDSO">    -1</i>
   <i type="int" name="NBANDSV">    -1</i>
   <i type="int" name="NELM">    60</i>
   <i type="int" name="DIM">     3</i>
   <i type="int" name="ANTIRES">     0</i>
   <i name="OMEGAMAX">    -30.00000000</i>
   <i name="OMEGATL">   -200.00000000</i>
   <i type="int" name="OMEGAGRID">     0</i>
   <i name="CSHIFT">     -0.10000000</i>
   <i type="logical" name="SELFENERGY"> F  </i>
   <i type="logical" name="LSPECTRAL"> F  </i>
   <i type="logical" name="ODDONLYGW"> F  </i>
   <i type="logical" name="EVENONLYGW"> F  </i>
   <i type="int" name="NKREDLFX">     1</i>
   <i type="int" name="NKREDLFY">     1</i>
   <i type="int" name="NKREDLFZ">     1</i>
   <i type="int" name="MAXMEM">  1800</i>
   <i type="int" name="TELESCOPE">     0</i>
  </separator>
 </parameters>
 <atominfo>
  <atoms>       6 </atoms>
  <types>       3 </types>
  <array name="atoms" >
   <dimension dim="1">ion</dimension>
   <field type="string">element</field>
   <field type="int">atomtype</field>
   <set>
    <rc><c>C </c><c>   1</c></rc>
    <rc><c>O </c><c>   2</c></rc>
    <rc><c>H </c><c>   3</c></rc>
    <rc><c>H </c><c>   3</c></rc>
    <rc><c>H </c><c>   3</c></rc>
    <rc><c>H </c><c>   3</c></rc>
   </set>
  </array>
  <array name="atomtypes" >
   <dimension dim="1">type</dimension>
   <field type="int">atomspertype</field>
   <field type="string">element</field>
   <field>mass</field>
   <field>valence</field>
   <field type="string">pseudopotential</field>
   <set>
    <rc><c>   1</c><c>C </c><c>     12.01100000</c><c>      4.00000000</c><c>  PAW_PBE C 08Apr2002                   </c></rc>
    <rc><c>   1</c><c>O </c><c>     16.00000000</c><c>      6.00000000</c><c>  PAW_PBE O 08Apr2002                   </c></rc>
    <rc><c>   4</c><c>H </c><c>      1.00000000</c><c>      1.00000000</c><c>  PAW_PBE H 15Jun2001                   </c></rc>
   </set>
  </array>
 </atominfo>
 <structure name="initialpos" >
  <crystal>
   <varray name="basis" >
    <v>      10.16000000       0.00000000       0.00000000 </v>
    <v>       0.00000000      11.76000000       0.00000000 </v>
    <v>       0.00000000       0.00000000      15.00000000 </v>
   </varray>
   <i name="volume">   1792.22400000 </i>
   <varray name="rec_basis" >
    <v>       0.09842520       0.00000000       0.00000000 </v>
    <v>       0.00000000       0.08503401       0.00000000 </v>
    <v>       0.00000000       0.00000000       0.06666667 </v>
   </varray>
  </crystal>
  <varray name="positions" >
   <v>       0.13033000       0.98029000       0.97436000 </v>
   <v>       0.00000000       0.00000000       0.00000000 </v>
   <v>       0.16408000       0.89617000       0.99926000 </v>
   <v>       0.19515000       0.04950000       0.99926000 </v>
   <v>       0.13582000       0.97946000       0.90049000 </v>
   <v>       0.00000000       0.00000000       0.06616000 </v>
  </varray>
 </structure>
 <calculation>
  <scstep>
   <time name="dav">    6.33    6.35</time>
   <time name="total">    7.21    7.23</time>
   <dipole>
    <v name="dipole">      0.00000000       0.00000000       0.00000666 </v>
    <i name="Tr[quadrupol]">    -15.68768861 </i>
    <i name="Echarged">      0.00000000 </i>
    <i name="Edipol_quadrupol">      0.00000000 </i>
    <i name="Eion">      0.00000000 </i>
   </dipole>
   <energy>
    <i name="alphaZ">      0.41745169 </i>
    <i name="ewald">    375.09116614 </i>
    <i name="hartreedc">   -845.09323113 </i>
    <i name="XCdc">     51.62565645 </i>
    <i name="pawpsdc">    461.97714119 </i>
    <i name="pawaedc">   -464.36507213 </i>
    <i name="eentropy">      0.00107223 </i>
    <i name="bandstr">   -149.55987977 </i>
    <i name="atom">    629.45057577 </i>
    <i name="e_fr_energy">     59.54488044 </i>
    <i name="e_wo_entrp">     59.54380821 </i>
    <i name="e_0_energy">     59.54452303 </i>
   </energy>
  </scstep>
  <scstep>
   <time name="dav">    7.71    7.71</time>
   <time name="total">    7.71    7.73</time>
   <dipole>
    <v name="dipole">      0.00000000       0.00000000       0.00000666 </v>
    <i name="Tr[quadrupol]">    -15.68768861 </i>
    <i name="Echarged">      0.00000000 </i>
    <i name="Edipol_quadrupol">      0.00000000 </i>
    <i name="Eion">      0.00000000 </i>
   </dipole>
   <energy>
    <i name="e_fr_energy">     -6.41757969 </i>
    <i name="e_wo_entrp">     -6.41678052 </i>
    <i name="e_0_energy">     -6.41731330 </i>
   </energy>
  </scstep>
  <scstep>
   <time name="dav">    7.05    7.06</time>
   <time name="total">    7.05    7.08</time>
   <dipole>
    <v name="dipole">      0.00000000       0.00000000       0.00000666 </v>
    <i name="Tr[quadrupol]">    -15.68768861 </i>
    <i name="Echarged">      0.00000000 </i>
    <i name="Edipol_quadrupol">      0.00000000 </i>
    <i name="Eion">      0.00000000 </i>
   </dipole>
   <energy>
    <i name="e_fr_energy">    -23.70197179 </i>
    <i name="e_wo_entrp">    -23.70229390 </i>
    <i name="e_0_energy">    -23.70207916 </i>
   </energy>
  </scstep>
  <scstep>
   <time name="dav">    6.57    6.57</time>
   <time name="total">    6.57    6.59</time>
   <dipole>
    <v name="dipole">      0.00000000       0.00000000       0.00000666 </v>
    <i name="Tr[quadrupol]">    -15.68768861 </i>
    <i name="Echarged">      0.00000000 </i>
    <i name="Edipol_quadrupol">      0.00000000 </i>
    <i name="Eion">      0.00000000 </i>
   </dipole>
   <energy>
    <i name="e_fr_energy">    -25.66220611 </i>
    <i name="e_wo_entrp">    -25.66326797 </i>
    <i name="e_0_energy">    -25.66256006 </i>
   </energy>
  </scstep>
  <scstep>
   <time name="dav">    7.36    7.37</time>
   <time name="total">    7.69    7.73</time>
   <dipole>
    <v name="dipole">      0.00000000       0.00000000       0.00000666 </v>
    <i name="Tr[quadrupol]">    -15.68768861 </i>
    <i name="Echarged">      0.00000000 </i>
    <i name="Edipol_quadrupol">      0.00000000 </i>
    <i name="Eion">      0.00000000 </i>
   </dipole>
   <energy>
    <i name="e_fr_energy">    -25.70478970 </i>
    <i name="e_wo_entrp">    -25.70768994 </i>
    <i name="e_0_energy">    -25.70575645 </i>
   </energy>
  </scstep>
  <scstep>
   <time name="dav">    5.80    5.80</time>
   <time name="total">    7.36    7.38</time>
   <dipole>
    <v name="dipole">      0.00000000       0.00000000      -0.03603229 </v>
    <i name="Tr[quadrupol]">    -15.85338892 </i>
    <i name="Echarged">      0.00000000 </i>
    <i name="Edipol_quadrupol">      0.00000000 </i>
    <i name="Eion">      0.00000000 </i>
   </dipole>
   <energy>
    <i name="e_fr_energy">    -10.41848985 </i>
    <i name="e_wo_entrp">    -10.42138896 </i>
    <i name="e_0_energy">    -10.41945622 </i>
   </energy>
  </scstep>
  <scstep>
   <time name="dav">    6.57    6.57</time>
   <time name="total">    8.11    8.14</time>
   <dipole>
    <v name="dipole">      0.00000000       0.00000000      -0.05601245 </v>
    <i name="Tr[quadrupol]">    -15.96954341 </i>
    <i name="Echarged">      0.00000000 </i>
    <i name="Edipol_quadrupol">      0.00000000 </i>
    <i name="Eion">      0.00000000 </i>
   </dipole>
   <energy>
    <i name="e_fr_energy">    -22.90592847 </i>
    <i name="e_wo_entrp">    -22.90919179 </i>
    <i name="e_0_energy">    -22.90701624 </i>
   </energy>
  </scstep>
  <scstep>
   <time name="dav">    7.01    7.02</time>
   <time name="total">    8.45    8.47</time>
   <dipole>
    <v name="dipole">      0.00000000       0.00000000      -0.06731499 </v>
    <i name="Tr[quadrupol]">    -16.05795818 </i>
    <i name="Echarged">      0.00000000 </i>
    <i name="Edipol_quadrupol">      0.00000000 </i>
    <i name="Eion">      0.00000000 </i>
   </dipole>
   <energy>
    <i name="e_fr_energy">    -24.87886524 </i>
    <i name="e_wo_entrp">    -24.88180102 </i>
    <i name="e_0_energy">    -24.87984384 </i>
   </energy>
  </scstep>
  <scstep>
   <time name="dav">    5.51    5.52</time>
   <time name="total">    7.04    7.06</time>
   <dipole>
    <v name="dipole">      0.00000000       0.00000000      -0.08781227 </v>
    <i name="Tr[quadrupol]">    -16.21524231 </i>
    <i name="Echarged">      0.00000000 </i>
    <i name="Edipol_quadrupol">      0.00000000 </i>
    <i name="Eion">      0.00000000 </i>
   </dipole>
   <energy>
    <i name="e_fr_energy">    -28.35519733 </i>
    <i name="e_wo_entrp">    -28.36164797 </i>
    <i name="e_0_energy">    -28.35734754 </i>
   </energy>
  </scstep>
  <scstep>
   <time name="dav">    6.43    6.43</time>
   <time name="total">    7.92    7.99</time>
   <dipole>
    <v name="dipole">      0.00000000       0.00000000      -0.09729012 </v>
    <i name="Tr[quadrupol]">    -16.28664647 </i>
    <i name="Echarged">      0.00000000 </i>
    <i name="Edipol_quadrupol">      0.00000000 </i>
    <i name="Eion">      0.00000000 </i>
   </dipole>
   <energy>
    <i name="e_fr_energy">    -28.97076436 </i>
    <i name="e_wo_entrp">    -28.97402095 </i>
    <i name="e_0_energy">    -28.97184989 </i>
   </energy>
  </scstep>
  <scstep>
   <time name="dav">    6.04    6.04</time>
   <time name="total">    7.56    7.58</time>
   <dipole>
    <v name="dipole">      0.00000000       0.00000000      -0.10466098 </v>
    <i name="Tr[quadrupol]">    -16.34578695 </i>
    <i name="Echarged">      0.00000000 </i>
    <i name="Edipol_quadrupol">      0.00000000 </i>
    <i name="Eion">      0.00000000 </i>
   </dipole>
   <energy>
    <i name="e_fr_energy">    -29.15800473 </i>
    <i name="e_wo_entrp">    -29.16439502 </i>
    <i name="e_0_energy">    -29.16013482 </i>
   </energy>
  </scstep>
  <scstep>
   <time name="dav">    5.79    5.79</time>
   <time name="total">    7.31    7.34</time>
   <dipole>
    <v name="dipole">      0.00000000       0.00000000      -0.11754402 </v>
    <i name="Tr[quadrupol]">    -16.45112739 </i>
    <i name="Echarged">      0.00000000 </i>
    <i name="Edipol_quadrupol">      0.00000000 </i>
    <i name="Eion">      0.00000000 </i>
   </dipole>
   <energy>
    <i name="e_fr_energy">    -29.58576613 </i>
    <i name="e_wo_entrp">    -29.59063720 </i>
    <i name="e_0_energy">    -29.58738982 </i>
   </energy>
  </scstep>
  <scstep>
   <time name="dav">    5.54    5.54</time>
   <time name="total">    7.00    7.02</time>
   <dipole>
    <v name="dipole">      0.00000000       0.00000000      -0.12975399 </v>
    <i name="Tr[quadrupol]">    -16.54931148 </i>
    <i name="Echarged">      0.00000000 </i>
    <i name="Edipol_quadrupol">      0.00000000 </i>
    <i name="Eion">      0.00000000 </i>
   </dipole>
   <energy>
    <i name="e_fr_energy">    -29.92834114 </i>
    <i name="e_wo_entrp">    -29.93427117 </i>
    <i name="e_0_energy">    -29.93031782 </i>
   </energy>
  </scstep>
  <scstep>
   <time name="dav">    5.95    5.96</time>
   <time name="total">    7.45    7.48</time>
   <dipole>
    <v name="dipole">      0.00000000       0.00000000      -0.14182149 </v>
    <i name="Tr[quadrupol]">    -16.64258814 </i>
    <i name="Echarged">      0.00000000 </i>
    <i name="Edipol_quadrupol">      0.00000000 </i>
    <i name="Eion">      0.00000000 </i>
   </dipole>
   <energy>
    <i name="e_fr_energy">    -30.10404526 </i>
    <i name="e_wo_entrp">    -30.10976607 </i>
    <i name="e_0_energy">    -30.10595219 </i>
   </energy>
  </scstep>
  <scstep>
   <time name="dav">    6.60    6.60</time>
   <time name="total">    8.16    8.18</time>
   <dipole>
    <v name="dipole">      0.00000000       0.00000000      -0.15009437 </v>
    <i name="Tr[quadrupol]">    -16.70172047 </i>
    <i name="Echarged">      0.00000000 </i>
    <i name="Edipol_quadrupol">      0.00000000 </i>
    <i name="Eion">      0.00000000 </i>
   </dipole>
   <energy>
    <i name="e_fr_energy">    -30.13341876 </i>
    <i name="e_wo_entrp">    -30.13893280 </i>
    <i name="e_0_energy">    -30.13525677 </i>
   </energy>
  </scstep>
  <scstep>
   <time name="dav">    5.88    5.88</time>
   <time name="total">    7.47    7.50</time>
   <dipole>
    <v name="dipole">      0.00000000       0.00000000      -0.16330379 </v>
    <i name="Tr[quadrupol]">    -16.74839409 </i>
    <i name="Echarged">      0.00000000 </i>
    <i name="Edipol_quadrupol">      0.00000000 </i>
    <i name="Eion">      0.00000000 </i>
   </dipole>
   <energy>
    <i name="e_fr_energy">    -30.14170101 </i>
    <i name="e_wo_entrp">    -30.14738752 </i>
    <i name="e_0_energy">    -30.14359651 </i>
   </energy>
  </scstep>
  <scstep>
   <time name="dav">    6.07    6.08</time>
   <time name="total">    7.58    7.61</time>
   <dipole>
    <v name="dipole">      0.00000000       0.00000000      -0.16893225 </v>
    <i name="Tr[quadrupol]">    -16.73260114 </i>
    <i name="Echarged">      0.00000000 </i>
    <i name="Edipol_quadrupol">      0.00000000 </i>
    <i name="Eion">      0.00000000 </i>
   </dipole>
   <energy>
    <i name="e_fr_energy">    -30.14137061 </i>
    <i name="e_wo_entrp">    -30.14687517 </i>
    <i name="e_0_energy">    -30.14320546 </i>
   </energy>
  </scstep>
  <scstep>
   <time name="dav">    5.75    5.75</time>
   <time name="total">    7.28    7.30</time>
   <dipole>
    <v name="dipole">      0.00000000       0.00000000      -0.17994815 </v>
    <i name="Tr[quadrupol]">    -16.75324203 </i>
    <i name="Echarged">      0.00000000 </i>
    <i name="Edipol_quadrupol">      0.00000000 </i>
    <i name="Eion">      0.00000000 </i>
   </dipole>
   <energy>
    <i name="e_fr_energy">    -30.14379735 </i>
    <i name="e_wo_entrp">    -30.14935997 </i>
    <i name="e_0_energy">    -30.14565156 </i>
   </energy>
  </scstep>
  <scstep>
   <time name="dav">    5.76    5.77</time>
   <time name="total">    7.31    7.34</time>
   <dipole>
    <v name="dipole">      0.00000000       0.00000000      -0.19249774 </v>
    <i name="Tr[quadrupol]">    -16.80087647 </i>
    <i name="Echarged">      0.00000000 </i>
    <i name="Edipol_quadrupol">      0.00000000 </i>
    <i name="Eion">      0.00000000 </i>
   </dipole>
   <energy>
    <i name="e_fr_energy">    -30.14698441 </i>
    <i name="e_wo_entrp">    -30.15259946 </i>
    <i name="e_0_energy">    -30.14885609 </i>
   </energy>
  </scstep>
  <scstep>
   <time name="dav">    5.69    5.73</time>
   <time name="total">    7.27    7.33</time>
   <dipole>
    <v name="dipole">      0.00000000       0.00000000      -0.19950475 </v>
    <i name="Tr[quadrupol]">    -16.82358275 </i>
    <i name="Echarged">      0.00000000 </i>
    <i name="Edipol_quadrupol">      0.00000000 </i>
    <i name="Eion">      0.00000000 </i>
   </dipole>
   <energy>
    <i name="e_fr_energy">    -30.14856212 </i>
    <i name="e_wo_entrp">    -30.15411189 </i>
    <i name="e_0_energy">    -30.15041204 </i>
   </energy>
  </scstep>
  <scstep>
   <time name="dav">    6.03    6.04</time>
   <time name="total">    7.67    7.70</time>
   <dipole>
    <v name="dipole">      0.00000000       0.00000000      -0.20518537 </v>
    <i name="Tr[quadrupol]">    -16.83982782 </i>
    <i name="Echarged">      0.00000000 </i>
    <i name="Edipol_quadrupol">      0.00000000 </i>
    <i name="Eion">      0.00000000 </i>
   </dipole>
   <energy>
    <i name="e_fr_energy">    -30.14919692 </i>
    <i name="e_wo_entrp">    -30.15477107 </i>
    <i name="e_0_energy">    -30.15105497 </i>
   </energy>
  </scstep>
  <scstep>
   <time name="dav">    5.99    5.99</time>
   <time name="total">    7.15    7.17</time>
   <dipole>
    <v name="dipole">      0.00000000       0.00000000      -0.20916009 </v>
    <i name="Tr[quadrupol]">    -16.84960925 </i>
    <i name="Echarged">      0.00000000 </i>
    <i name="Edipol_quadrupol">      0.00000000 </i>
    <i name="Eion">      0.00000000 </i>
   </dipole>
   <energy>
    <i name="alphaZ">      0.15680142 </i>
    <i name="ewald">    375.09116614 </i>
    <i name="hartreedc">   -907.23709263 </i>
    <i name="XCdc">     53.31937831 </i>
    <i name="pawpsdc">    942.77426389 </i>
    <i name="pawaedc">   -945.59074787 </i>
    <i name="eentropy">      0.00557839 </i>
    <i name="bandstr">   -178.11918861 </i>
    <i name="atom">    629.45057577 </i>
    <i name="e_fr_energy">    -30.14926518 </i>
    <i name="e_wo_entrp">    -30.15484357 </i>
    <i name="e_0_energy">    -30.15112465 </i>
   </energy>
  </scstep>
  <structure>
   <crystal>
    <varray name="basis" >
     <v>      10.16000000       0.00000000       0.00000000 </v>
     <v>       0.00000000      11.76000000       0.00000000 </v>
     <v>       0.00000000       0.00000000      15.00000000 </v>
    </varray>
    <i name="volume">   1792.22400000 </i>
    <varray name="rec_basis" >
     <v>       0.09842520       0.00000000       0.00000000 </v>
     <v>       0.00000000       0.08503401       0.00000000 </v>
     <v>       0.00000000       0.00000000       0.06666667 </v>
    </varray>
   </crystal>
   <varray name="positions" >
    <v>       0.13033000       0.98029000       0.97436000 </v>
    <v>       0.00000000       0.00000000       0.00000000 </v>
    <v>       0.16408000       0.89617000       0.99926000 </v>
    <v>       0.19515000       0.04950000       0.99926000 </v>
    <v>       0.13582000       0.97946000       0.90049000 </v>
    <v>       0.00000000       0.00000000       0.06616000 </v>
   </varray>
  </structure>
  <varray name="forces" >
   <v>       1.03699715      -0.17755028      -0.34729634 </v>
   <v>      -1.05882102       0.18396642       1.21085005 </v>
   <v>       0.22622642       0.24208798      -0.13673990 </v>
   <v>       0.12884075      -0.30580058      -0.13683039 </v>
   <v>      -0.10250688       0.01735468       0.35529095 </v>
   <v>      -0.23073642       0.03994178      -0.94527436 </v>
  </varray>
  <varray name="stress" >
   <v>       1.61199318      -0.36389258      -0.43058337 </v>
   <v>      -0.36389258      -0.45971742       0.07539115 </v>
   <v>      -0.43058337       0.07539115      -1.19520454 </v>
  </varray>
  <energy>
   <i name="e_fr_energy">    -30.14926518 </i>
   <i name="e_wo_entrp">    -30.15112465 </i>
   <i name="e_0_energy">      0.00557839 </i>
  </energy>
  <time name="totalsc">  174.14  174.88</time>
 </calculation>
 <calculation>
  <scstep>
   <time name="dav">    6.80    6.80</time>
   <time name="total">    8.29    8.30</time>
   <dipole>
    <v name="dipole">      0.00000000       0.00000000      -0.21214923 </v>
    <i name="Tr[quadrupol]">    -17.39300864 </i>
    <i name="Echarged">      0.00000000 </i>
    <i name="Edipol_quadrupol">      0.00000000 </i>
    <i name="Eion">      0.00000000 </i>
   </dipole>
   <energy>
    <i name="alphaZ">      0.13113433 </i>
    <i name="ewald">    367.07176086 </i>
    <i name="hartreedc">   -896.34880952 </i>
    <i name="XCdc">     53.35368126 </i>
    <i name="pawpsdc">    942.74488204 </i>
    <i name="pawaedc">   -945.56139821 </i>
    <i name="eentropy">      0.00544811 </i>
    <i name="bandstr">   -180.64564489 </i>
    <i name="atom">    629.45057577 </i>
    <i name="e_fr_energy">    -29.79837024 </i>
    <i name="e_wo_entrp">    -29.80381835 </i>
    <i name="e_0_energy">    -29.80018627 </i>
   </energy>
  </scstep>
  <scstep>
   <time name="dav">    5.54    5.54</time>
   <time name="total">    7.03    7.06</time>
   <dipole>
    <v name="dipole">      0.00000000       0.00000000      -0.20718985 </v>
    <i name="Tr[quadrupol]">    -17.44190621 </i>
    <i name="Echarged">      0.00000000 </i>
    <i name="Edipol_quadrupol">      0.00000000 </i>
    <i name="Eion">      0.00000000 </i>
   </dipole>
   <energy>
    <i name="e_fr_energy">    -29.89399667 </i>
    <i name="e_wo_entrp">    -29.89928254 </i>
    <i name="e_0_energy">    -29.89575862 </i>
   </energy>
  </scstep>
  <scstep>
   <time name="dav">    7.15    7.15</time>
   <time name="total">    8.67    8.70</time>
   <dipole>
    <v name="dipole">      0.00000000       0.00000000      -0.20366546 </v>
    <i name="Tr[quadrupol]">    -17.45175084 </i>
    <i name="Echarged">      0.00000000 </i>
    <i name="Edipol_quadrupol">      0.00000000 </i>
    <i name="Eion">      0.00000000 </i>
   </dipole>
   <energy>
    <i name="e_fr_energy">    -29.88010702 </i>
    <i name="e_wo_entrp">    -29.88575801 </i>
    <i name="e_0_energy">    -29.88199068 </i>
   </energy>
  </scstep>
  <scstep>
   <time name="dav">    5.75    5.75</time>
   <time name="total">    7.18    7.21</time>
   <dipole>
    <v name="dipole">      0.00000000       0.00000000      -0.19825424 </v>
    <i name="Tr[quadrupol]">    -17.57083891 </i>
    <i name="Echarged">      0.00000000 </i>
    <i name="Edipol_quadrupol">      0.00000000 </i>
    <i name="Eion">      0.00000000 </i>
   </dipole>
   <energy>
    <i name="e_fr_energy">    -29.87478706 </i>
    <i name="e_wo_entrp">    -29.87866595 </i>
    <i name="e_0_energy">    -29.87608002 </i>
   </energy>
  </scstep>
  <scstep>
   <time name="dav">    5.75    5.75</time>
   <time name="total">    7.28    7.30</time>
   <dipole>
    <v name="dipole">      0.00000000       0.00000000      -0.19619214 </v>
    <i name="Tr[quadrupol]">    -17.61077424 </i>
    <i name="Echarged">      0.00000000 </i>
    <i name="Edipol_quadrupol">      0.00000000 </i>
    <i name="Eion">      0.00000000 </i>
   </dipole>
   <energy>
    <i name="e_fr_energy">    -29.87518891 </i>
    <i name="e_wo_entrp">    -29.88163843 </i>
    <i name="e_0_energy">    -29.87733875 </i>
   </energy>
  </scstep>
  <scstep>
   <time name="dav">    5.42    5.43</time>
   <time name="total">    6.94    6.96</time>
   <dipole>
    <v name="dipole">      0.00000000       0.00000000      -0.19409322 </v>
    <i name="Tr[quadrupol]">    -17.64986018 </i>
    <i name="Echarged">      0.00000000 </i>
    <i name="Edipol_quadrupol">      0.00000000 </i>
    <i name="Eion">      0.00000000 </i>
   </dipole>
   <energy>
    <i name="e_fr_energy">    -29.87627791 </i>
    <i name="e_wo_entrp">    -29.88160116 </i>
    <i name="e_0_energy">    -29.87805232 </i>
   </energy>
  </scstep>
  <scstep>
   <time name="dav">    5.94    5.94</time>
   <time name="total">    7.49    7.51</time>
   <dipole>
    <v name="dipole">      0.00000000       0.00000000      -0.19020576 </v>
    <i name="Tr[quadrupol]">    -17.69012864 </i>
    <i name="Echarged">      0.00000000 </i>
    <i name="Edipol_quadrupol">      0.00000000 </i>
    <i name="Eion">      0.00000000 </i>
   </dipole>
   <energy>
    <i name="e_fr_energy">    -29.87680166 </i>
    <i name="e_wo_entrp">    -29.88225700 </i>
    <i name="e_0_energy">    -29.87862010 </i>
   </energy>
  </scstep>
  <scstep>
   <time name="dav">    6.13    6.14</time>
   <time name="total">    7.57    7.60</time>
   <dipole>
    <v name="dipole">      0.00000000       0.00000000      -0.18777252 </v>
    <i name="Tr[quadrupol]">    -17.72698423 </i>
    <i name="Echarged">      0.00000000 </i>
    <i name="Edipol_quadrupol">      0.00000000 </i>
    <i name="Eion">      0.00000000 </i>
   </dipole>
   <energy>
    <i name="e_fr_energy">    -29.87717169 </i>
    <i name="e_wo_entrp">    -29.88256043 </i>
    <i name="e_0_energy">    -29.87896794 </i>
   </energy>
  </scstep>
  <scstep>
   <time name="dav">    5.85    5.86</time>
   <time name="total">    7.29    7.32</time>
   <dipole>
    <v name="dipole">      0.00000000       0.00000000      -0.18441126 </v>
    <i name="Tr[quadrupol]">    -17.73067312 </i>
    <i name="Echarged">      0.00000000 </i>
    <i name="Edipol_quadrupol">      0.00000000 </i>
    <i name="Eion">      0.00000000 </i>
   </dipole>
   <energy>
    <i name="e_fr_energy">    -29.87761391 </i>
    <i name="e_wo_entrp">    -29.88298580 </i>
    <i name="e_0_energy">    -29.87940454 </i>
   </energy>
  </scstep>
  <scstep>
   <time name="dav">    5.91    5.91</time>
   <time name="total">    7.40    7.43</time>
   <dipole>
    <v name="dipole">      0.00000000       0.00000000      -0.18006250 </v>
    <i name="Tr[quadrupol]">    -17.76732329 </i>
    <i name="Echarged">      0.00000000 </i>
    <i name="Edipol_quadrupol">      0.00000000 </i>
    <i name="Eion">      0.00000000 </i>
   </dipole>
   <energy>
    <i name="e_fr_energy">    -29.87808566 </i>
    <i name="e_wo_entrp">    -29.88348019 </i>
    <i name="e_0_energy">    -29.87988384 </i>
   </energy>
  </scstep>
  <scstep>
   <time name="dav">    6.17    6.17</time>
   <time name="total">    7.64    7.67</time>
   <dipole>
    <v name="dipole">      0.00000000       0.00000000      -0.17713860 </v>
    <i name="Tr[quadrupol]">    -17.76962238 </i>
    <i name="Echarged">      0.00000000 </i>
    <i name="Edipol_quadrupol">      0.00000000 </i>
    <i name="Eion">      0.00000000 </i>
   </dipole>
   <energy>
    <i name="e_fr_energy">    -29.87832810 </i>
    <i name="e_wo_entrp">    -29.88371968 </i>
    <i name="e_0_energy">    -29.88012529 </i>
   </energy>
  </scstep>
  <scstep>
   <time name="dav">    5.85    5.85</time>
   <time name="total">    7.29    7.32</time>
   <dipole>
    <v name="dipole">      0.00000000       0.00000000      -0.17429023 </v>
    <i name="Tr[quadrupol]">    -17.77168057 </i>
    <i name="Echarged">      0.00000000 </i>
    <i name="Edipol_quadrupol">      0.00000000 </i>
    <i name="Eion">      0.00000000 </i>
   </dipole>
   <energy>
    <i name="e_fr_energy">    -29.87850265 </i>
    <i name="e_wo_entrp">    -29.88388709 </i>
    <i name="e_0_energy">    -29.88029746 </i>
   </energy>
  </scstep>
  <scstep>
   <time name="dav">    6.56    6.58</time>
   <time name="total">    7.81    7.84</time>
   <dipole>
    <v name="dipole">      0.00000000       0.00000000      -0.17245348 </v>
    <i name="Tr[quadrupol]">    -17.77286198 </i>
    <i name="Echarged">      0.00000000 </i>
    <i name="Edipol_quadrupol">      0.00000000 </i>
    <i name="Eion">      0.00000000 </i>
   </dipole>
   <energy>
    <i name="alphaZ">      0.38379387 </i>
    <i name="ewald">    367.07176086 </i>
    <i name="hartreedc">   -898.79346182 </i>
    <i name="XCdc">     53.49806058 </i>
    <i name="pawpsdc">    947.95969997 </i>
    <i name="pawaedc">   -950.81435940 </i>
    <i name="eentropy">      0.00539059 </i>
    <i name="bandstr">   -178.64004326 </i>
    <i name="atom">    629.45057577 </i>
    <i name="e_fr_energy">    -29.87858284 </i>
    <i name="e_wo_entrp">    -29.88397343 </i>
    <i name="e_0_energy">    -29.88037970 </i>
   </energy>
  </scstep>
  <structure>
   <crystal>
    <varray name="basis" >
     <v>      10.16000000       0.00000000       0.00000000 </v>
     <v>       0.00000000      11.76000000       0.00000000 </v>
     <v>       0.00000000       0.00000000      15.00000000 </v>
    </varray>
    <i name="volume">   1792.22400000 </i>
    <varray name="rec_basis" >
     <v>       0.09842520       0.00000000       0.00000000 </v>
     <v>       0.00000000       0.08503401       0.00000000 </v>
     <v>       0.00000000       0.00000000       0.06666667 </v>
    </varray>
   </crystal>
   <varray name="positions" >
    <v>       0.13525397       0.97956164       0.97324303 </v>
    <v>      -0.00502759       0.00075468       0.00389431 </v>
    <v>       0.16515419       0.89716311       0.99882022 </v>
    <v>       0.19576177       0.04824552       0.99881993 </v>
    <v>       0.13533327       0.97953119       0.90163268 </v>
    <v>      -0.00109560       0.00016385       0.06311983 </v>
   </varray>
  </structure>
  <varray name="forces" >
   <v>      -2.14164049       0.37700958       1.20202395 </v>
   <v>       1.31912423      -0.23194848      -6.24270751 </v>
   <v>       0.34660753      -0.33964331       0.06219435 </v>
   <v>       0.44577498       0.20522870       0.06604456 </v>
   <v>      -0.13869294       0.02180411      -0.65680316 </v>
   <v>       0.16882669      -0.03245060       5.56924781 </v>
  </varray>
  <varray name="stress" >
   <v>      -1.67680976       0.34900899       1.15519238 </v>
   <v>       0.34900899       0.29505433      -0.19203512 </v>
   <v>       1.15519238      -0.19203511       4.71354526 </v>
  </varray>
  <energy>
   <i name="e_fr_energy">    -29.87858284 </i>
   <i name="e_wo_entrp">    -29.88037970 </i>
   <i name="e_0_energy">      0.00539059 </i>
  </energy>
  <time name="totalsc">  107.32  107.79</time>
 </calculation>
 <calculation>
  <scstep>
   <time name="dav">    5.94    5.94</time>
   <time name="total">    7.44    7.45</time>
   <dipole>
    <v name="dipole">      0.00000000       0.00000000      -0.17073700 </v>
    <i name="Tr[quadrupol]">    -17.33953402 </i>
    <i name="Echarged">      0.00000000 </i>
    <i name="Edipol_quadrupol">      0.00000000 </i>
    <i name="Eion">      0.00000000 </i>
   </dipole>
   <energy>
    <i name="alphaZ">      0.38098260 </i>
    <i name="ewald">    372.58541045 </i>
    <i name="hartreedc">   -906.41002879 </i>
    <i name="XCdc">     53.44367002 </i>
    <i name="pawpsdc">    947.99376799 </i>
    <i name="pawaedc">   -950.84844933 </i>
    <i name="eentropy">      0.00560176 </i>
    <i name="bandstr">   -176.74222522 </i>
    <i name="atom">    629.45057577 </i>
    <i name="e_fr_energy">    -30.14069476 </i>
    <i name="e_wo_entrp">    -30.14629652 </i>
    <i name="e_0_energy">    -30.14256201 </i>
   </energy>
  </scstep>
  <scstep>
   <time name="dav">    5.00    5.00</time>
   <time name="total">    6.40    6.40</time>
   <dipole>
    <v name="dipole">      0.00000000       0.00000000      -0.17460786 </v>
    <i name="Tr[quadrupol]">    -17.36961879 </i>
    <i name="Echarged">      0.00000000 </i>
    <i name="Edipol_quadrupol">      0.00000000 </i>
    <i name="Eion">      0.00000000 </i>
   </dipole>
   <energy>
    <i name="e_fr_energy">    -30.18802563 </i>
    <i name="e_wo_entrp">    -30.19326935 </i>
    <i name="e_0_energy">    -30.18977353 </i>
   </energy>
  </scstep>
  <scstep>
   <time name="dav">    6.13    6.13</time>
   <time name="total">    7.46    7.46</time>
   <dipole>
    <v name="dipole">      0.00000000       0.00000000      -0.17780715 </v>
    <i name="Tr[quadrupol]">    -17.36987428 </i>
    <i name="Echarged">      0.00000000 </i>
    <i name="Edipol_quadrupol">      0.00000000 </i>
    <i name="Eion">      0.00000000 </i>
   </dipole>
   <energy>
    <i name="e_fr_energy">    -30.18150128 </i>
    <i name="e_wo_entrp">    -30.18754081 </i>
    <i name="e_0_energy">    -30.18351446 </i>
   </energy>
  </scstep>
  <scstep>
   <time name="dav">    4.84    4.84</time>
   <time name="total">    6.21    6.21</time>
   <dipole>
    <v name="dipole">      0.00000000       0.00000000      -0.18229083 </v>
    <i name="Tr[quadrupol]">    -17.36791293 </i>
    <i name="Echarged">      0.00000000 </i>
    <i name="Edipol_quadrupol">      0.00000000 </i>
    <i name="Eion">      0.00000000 </i>
   </dipole>
   <energy>
    <i name="e_fr_energy">    -30.17524820 </i>
    <i name="e_wo_entrp">    -30.17840797 </i>
    <i name="e_0_energy">    -30.17630145 </i>
   </energy>
  </scstep>
  <scstep>
   <time name="dav">    4.40    4.41</time>
   <time name="total">    5.76    5.77</time>
   <dipole>
    <v name="dipole">      0.00000000       0.00000000      -0.18394798 </v>
    <i name="Tr[quadrupol]">    -17.39986866 </i>
    <i name="Echarged">      0.00000000 </i>
    <i name="Edipol_quadrupol">      0.00000000 </i>
    <i name="Eion">      0.00000000 </i>
   </dipole>
   <energy>
    <i name="e_fr_energy">    -30.17890278 </i>
    <i name="e_wo_entrp">    -30.18411064 </i>
    <i name="e_0_energy">    -30.18063874 </i>
   </energy>
  </scstep>
  <scstep>
   <time name="dav">    4.96    4.96</time>
   <time name="total">    6.32    6.32</time>
   <dipole>
    <v name="dipole">      0.00000000       0.00000000      -0.18530749 </v>
    <i name="Tr[quadrupol]">    -17.39974197 </i>
    <i name="Echarged">      0.00000000 </i>
    <i name="Edipol_quadrupol">      0.00000000 </i>
    <i name="Eion">      0.00000000 </i>
   </dipole>
   <energy>
    <i name="e_fr_energy">    -30.17937185 </i>
    <i name="e_wo_entrp">    -30.18492803 </i>
    <i name="e_0_energy">    -30.18122391 </i>
   </energy>
  </scstep>
  <scstep>
   <time name="dav">    4.66    4.66</time>
   <time name="total">    5.98    5.98</time>
   <dipole>
    <v name="dipole">      0.00000000       0.00000000      -0.18772520 </v>
    <i name="Tr[quadrupol]">    -17.39963767 </i>
    <i name="Echarged">      0.00000000 </i>
    <i name="Edipol_quadrupol">      0.00000000 </i>
    <i name="Eion">      0.00000000 </i>
   </dipole>
   <energy>
    <i name="e_fr_energy">    -30.17970850 </i>
    <i name="e_wo_entrp">    -30.18512386 </i>
    <i name="e_0_energy">    -30.18151362 </i>
   </energy>
  </scstep>
  <scstep>
   <time name="dav">    4.97    4.97</time>
   <time name="total">    6.34    6.35</time>
   <dipole>
    <v name="dipole">      0.00000000       0.00000000      -0.18964046 </v>
    <i name="Tr[quadrupol]">    -17.39951940 </i>
    <i name="Echarged">      0.00000000 </i>
    <i name="Edipol_quadrupol">      0.00000000 </i>
    <i name="Eion">      0.00000000 </i>
   </dipole>
   <energy>
    <i name="e_fr_energy">    -30.17991801 </i>
    <i name="e_wo_entrp">    -30.18549530 </i>
    <i name="e_0_energy">    -30.18177710 </i>
   </energy>
  </scstep>
  <scstep>
   <time name="dav">    4.57    4.57</time>
   <time name="total">    5.95    5.95</time>
   <dipole>
    <v name="dipole">      0.00000000       0.00000000      -0.19175183 </v>
    <i name="Tr[quadrupol]">    -17.36509368 </i>
    <i name="Echarged">      0.00000000 </i>
    <i name="Edipol_quadrupol">      0.00000000 </i>
    <i name="Eion">      0.00000000 </i>
   </dipole>
   <energy>
    <i name="e_fr_energy">    -30.18015538 </i>
    <i name="e_wo_entrp">    -30.18570623 </i>
    <i name="e_0_energy">    -30.18200566 </i>
   </energy>
  </scstep>
  <scstep>
   <time name="dav">    4.76    4.76</time>
   <time name="total">    6.16    6.16</time>
   <dipole>
    <v name="dipole">      0.00000000       0.00000000      -0.19481187 </v>
    <i name="Tr[quadrupol]">    -17.36432983 </i>
    <i name="Echarged">      0.00000000 </i>
    <i name="Edipol_quadrupol">      0.00000000 </i>
    <i name="Eion">      0.00000000 </i>
   </dipole>
   <energy>
    <i name="e_fr_energy">    -30.18045760 </i>
    <i name="e_wo_entrp">    -30.18591405 </i>
    <i name="e_0_energy">    -30.18227642 </i>
   </energy>
  </scstep>
  <scstep>
   <time name="dav">    5.14    5.14</time>
   <time name="total">    6.49    6.50</time>
   <dipole>
    <v name="dipole">      0.00000000       0.00000000      -0.19765080 </v>
    <i name="Tr[quadrupol]">    -17.36363654 </i>
    <i name="Echarged">      0.00000000 </i>
    <i name="Edipol_quadrupol">      0.00000000 </i>
    <i name="Eion">      0.00000000 </i>
   </dipole>
   <energy>
    <i name="e_fr_energy">    -30.18067067 </i>
    <i name="e_wo_entrp">    -30.18620567 </i>
    <i name="e_0_energy">    -30.18251567 </i>
   </energy>
  </scstep>
  <scstep>
   <time name="dav">    5.17    5.17</time>
   <time name="total">    6.26    6.26</time>
   <dipole>
    <v name="dipole">      0.00000000       0.00000000      -0.19927136 </v>
    <i name="Tr[quadrupol]">    -17.36323892 </i>
    <i name="Echarged">      0.00000000 </i>
    <i name="Edipol_quadrupol">      0.00000000 </i>
    <i name="Eion">      0.00000000 </i>
   </dipole>
   <energy>
    <i name="alphaZ">      0.40011218 </i>
    <i name="ewald">    372.58541045 </i>
    <i name="hartreedc">   -904.87969637 </i>
    <i name="XCdc">     53.34956968 </i>
    <i name="pawpsdc">    940.50543390 </i>
    <i name="pawaedc">   -943.32664923 </i>
    <i name="eentropy">      0.00551904 </i>
    <i name="bandstr">   -178.27103593 </i>
    <i name="atom">    629.45057577 </i>
    <i name="e_fr_energy">    -30.18076050 </i>
    <i name="e_wo_entrp">    -30.18627954 </i>
    <i name="e_0_energy">    -30.18260018 </i>
   </energy>
  </scstep>
  <structure>
   <crystal>
    <varray name="basis" >
     <v>      10.16000000       0.00000000       0.00000000 </v>
     <v>       0.00000000      11.76000000       0.00000000 </v>
     <v>       0.00000000       0.00000000      15.00000000 </v>
    </varray>
    <i name="volume">   1792.22400000 </i>
    <varray name="rec_basis" >
     <v>       0.09842520       0.00000000       0.00000000 </v>
     <v>       0.00000000       0.08503401       0.00000000 </v>
     <v>       0.00000000       0.00000000       0.06666667 </v>
    </varray>
   </crystal>
   <varray name="positions" >
    <v>       0.13157330       0.98010609       0.97407797 </v>
    <v>      -0.00126947       0.00019056       0.00098331 </v>
    <v>       0.16435123       0.89642076       0.99914896 </v>
    <v>       0.19530447       0.04918324       0.99914888 </v>
    <v>       0.13569710       0.97947798       0.90077853 </v>
    <v>      -0.00027664       0.00004137       0.06539236 </v>
   </varray>
  </structure>
  <varray name="forces" >
   <v>       0.03799353       0.00050410       0.09356642 </v>
   <v>      -0.20532122       0.02156987      -0.27131842 </v>
   <v>       0.25464186       0.11188054      -0.10017784 </v>
   <v>       0.20202952      -0.18720574      -0.09936107 </v>
   <v>      -0.10599535       0.01991621       0.11427908 </v>
   <v>      -0.18334833       0.03333502       0.26301183 </v>
  </varray>
  <varray name="stress" >
   <v>       0.58641547      -0.14340883      -0.04023015 </v>
   <v>      -0.14340883      -0.30862315       0.00587688 </v>
   <v>      -0.04023015       0.00587687      -0.00283750 </v>
  </varray>
  <energy>
   <i name="e_fr_energy">    -30.18076050 </i>
   <i name="e_wo_entrp">    -30.18260018 </i>
   <i name="e_0_energy">      0.00551904 </i>
  </energy>
  <time name="totalsc">   84.80   84.90</time>
 </calculation>
 <calculation>
  <scstep>
   <time name="dav">    4.26    4.26</time>
   <time name="total">    5.61    5.61</time>
   <dipole>
    <v name="dipole">      0.00000000       0.00000000      -0.20061821 </v>
    <i name="Tr[quadrupol]">    -17.46240714 </i>
    <i name="Echarged">      0.00000000 </i>
    <i name="Edipol_quadrupol">      0.00000000 </i>
    <i name="Eion">      0.00000000 </i>
   </dipole>
   <energy>
    <i name="alphaZ">      0.39946996 </i>
    <i name="ewald">    368.92979505 </i>
    <i name="hartreedc">   -902.22367432 </i>
    <i name="XCdc">     53.30939997 </i>
    <i name="pawpsdc">    940.45498939 </i>
    <i name="pawaedc">   -943.27625076 </i>
    <i name="eentropy">      0.00547378 </i>
    <i name="bandstr">   -177.23526049 </i>
    <i name="atom">    629.45057577 </i>
    <i name="e_fr_energy">    -30.18548164 </i>
    <i name="e_wo_entrp">    -30.19095542 </i>
    <i name="e_0_energy">    -30.18730623 </i>
   </energy>
  </scstep>
  <scstep>
   <time name="dav">    5.12    5.12</time>
   <time name="total">    6.45    6.45</time>
   <dipole>
    <v name="dipole">      0.00000000       0.00000000      -0.20121963 </v>
    <i name="Tr[quadrupol]">    -17.46134297 </i>
    <i name="Echarged">      0.00000000 </i>
    <i name="Edipol_quadrupol">      0.00000000 </i>
    <i name="Eion">      0.00000000 </i>
   </dipole>
   <energy>
    <i name="e_fr_energy">    -30.18690673 </i>
    <i name="e_wo_entrp">    -30.19243283 </i>
    <i name="e_0_energy">    -30.18874876 </i>
   </energy>
  </scstep>
  <scstep>
   <time name="dav">    4.87    4.87</time>
   <time name="total">    6.18    6.19</time>
   <dipole>
    <v name="dipole">      0.00000000       0.00000000      -0.20183121 </v>
    <i name="Tr[quadrupol]">    -17.46103190 </i>
    <i name="Echarged">      0.00000000 </i>
    <i name="Edipol_quadrupol">      0.00000000 </i>
    <i name="Eion">      0.00000000 </i>
   </dipole>
   <energy>
    <i name="e_fr_energy">    -30.18679346 </i>
    <i name="e_wo_entrp">    -30.19218373 </i>
    <i name="e_0_energy">    -30.18859021 </i>
   </energy>
  </scstep>
  <scstep>
   <time name="dav">    4.50    4.54</time>
   <time name="total">    5.56    5.60</time>
   <dipole>
    <v name="dipole">      0.00000000       0.00000000      -0.20220758 </v>
    <i name="Tr[quadrupol]">    -17.46095126 </i>
    <i name="Echarged">      0.00000000 </i>
    <i name="Edipol_quadrupol">      0.00000000 </i>
    <i name="Eion">      0.00000000 </i>
   </dipole>
   <energy>
    <i name="alphaZ">      0.39931104 </i>
    <i name="ewald">    368.92979505 </i>
    <i name="hartreedc">   -901.70290083 </i>
    <i name="XCdc">     53.28228900 </i>
    <i name="pawpsdc">    934.44720687 </i>
    <i name="pawaedc">   -937.25418882 </i>
    <i name="eentropy">      0.00586277 </i>
    <i name="bandstr">   -177.74468754 </i>
    <i name="atom">    629.45057577 </i>
    <i name="e_fr_energy">    -30.18673669 </i>
    <i name="e_wo_entrp">    -30.19259945 </i>
    <i name="e_0_energy">    -30.18869094 </i>
   </energy>
  </scstep>
  <structure>
   <crystal>
    <varray name="basis" >
     <v>      10.16000000       0.00000000       0.00000000 </v>
     <v>       0.00000000      11.76000000       0.00000000 </v>
     <v>       0.00000000       0.00000000      15.00000000 </v>
    </varray>
    <i name="volume">   1792.22400000 </i>
    <varray name="rec_basis" >
     <v>       0.09842520       0.00000000       0.00000000 </v>
     <v>       0.00000000       0.08503401       0.00000000 </v>
     <v>       0.00000000       0.00000000       0.06666667 </v>
    </varray>
   </crystal>
   <varray name="positions" >
    <v>       0.13211912       0.98004981       0.97424489 </v>
    <v>      -0.00249928       0.00032595       0.00055149 </v>
    <v>       0.16546519       0.89689025       0.99883989 </v>
    <v>       0.19616911       0.04843012       0.99884203 </v>
    <v>       0.13523026       0.97955314       0.90118218 </v>
    <v>      -0.00110439       0.00017073       0.06586952 </v>
   </varray>
  </structure>
  <varray name="forces" >
   <v>      -0.41951427       0.07356324       0.01351578 </v>
   <v>       0.29454137      -0.07089395       0.34027758 </v>
   <v>       0.19722332      -0.05299816       0.00179571 </v>
   <v>       0.20633393      -0.00248527       0.00645661 </v>
   <v>      -0.06101380       0.01372871      -0.00373543 </v>
   <v>      -0.21757055       0.03908543      -0.35831025 </v>
  </varray>
  <varray name="stress" >
   <v>      -0.04273206      -0.00338061       0.02598808 </v>
   <v>      -0.00338061      -0.08391275      -0.00059415 </v>
   <v>       0.02598808      -0.00059416      -0.38646153 </v>
  </varray>
  <energy>
   <i name="e_fr_energy">    -30.18673669 </i>
   <i name="e_wo_entrp">    -30.18869094 </i>
   <i name="e_0_energy">      0.00586277 </i>
  </energy>
  <time name="totalsc">   31.69   31.74</time>
 </calculation>
 <calculation>
  <scstep>
   <time name="dav">    4.51    4.51</time>
   <time name="total">    5.81    5.81</time>
   <dipole>
    <v name="dipole">      0.00000000       0.00000000      -0.20243297 </v>
    <i name="Tr[quadrupol]">    -17.43822898 </i>
    <i name="Echarged">      0.00000000 </i>
    <i name="Edipol_quadrupol">      0.00000000 </i>
    <i name="Eion">      0.00000000 </i>
   </dipole>
   <energy>
    <i name="alphaZ">      0.39940390 </i>
    <i name="ewald">    369.74168790 </i>
    <i name="hartreedc">   -902.30225159 </i>
    <i name="XCdc">     53.29135644 </i>
    <i name="pawpsdc">    934.08295837 </i>
    <i name="pawaedc">   -936.88830830 </i>
    <i name="eentropy">      0.00518563 </i>
    <i name="bandstr">   -177.96783640 </i>
    <i name="atom">    629.45057577 </i>
    <i name="e_fr_energy">    -30.18722830 </i>
    <i name="e_wo_entrp">    -30.19241392 </i>
    <i name="e_0_energy">    -30.18895684 </i>
   </energy>
  </scstep>
  <scstep>
   <time name="dav">    4.49    4.49</time>
   <time name="total">    5.82    5.82</time>
   <dipole>
    <v name="dipole">      0.00000000       0.00000000      -0.20261314 </v>
    <i name="Tr[quadrupol]">    -17.47434673 </i>
    <i name="Echarged">      0.00000000 </i>
    <i name="Edipol_quadrupol">      0.00000000 </i>
    <i name="Eion">      0.00000000 </i>
   </dipole>
   <energy>
    <i name="e_fr_energy">    -30.18718064 </i>
    <i name="e_wo_entrp">    -30.19338179 </i>
    <i name="e_0_energy">    -30.18924769 </i>
   </energy>
  </scstep>
  <scstep>
   <time name="dav">    4.36    4.36</time>
   <time name="total">    5.72    5.73</time>
   <dipole>
    <v name="dipole">      0.00000000       0.00000000      -0.20268654 </v>
    <i name="Tr[quadrupol]">    -17.40185082 </i>
    <i name="Echarged">      0.00000000 </i>
    <i name="Edipol_quadrupol">      0.00000000 </i>
    <i name="Eion">      0.00000000 </i>
   </dipole>
   <energy>
    <i name="e_fr_energy">    -30.18738806 </i>
    <i name="e_wo_entrp">    -30.19278506 </i>
    <i name="e_0_energy">    -30.18918706 </i>
   </energy>
  </scstep>
  <scstep>
   <time name="dav">    4.62    4.62</time>
   <time name="total">    5.66    5.66</time>
   <dipole>
    <v name="dipole">      0.00000000       0.00000000      -0.20286341 </v>
    <i name="Tr[quadrupol]">    -17.47414566 </i>
    <i name="Echarged">      0.00000000 </i>
    <i name="Edipol_quadrupol">      0.00000000 </i>
    <i name="Eion">      0.00000000 </i>
   </dipole>
   <energy>
    <i name="alphaZ">      0.42533659 </i>
    <i name="ewald">    369.74168790 </i>
    <i name="hartreedc">   -902.40099020 </i>
    <i name="XCdc">     53.29590237 </i>
    <i name="pawpsdc">    934.89563387 </i>
    <i name="pawaedc">   -937.70140981 </i>
    <i name="eentropy">      0.00551693 </i>
    <i name="bandstr">   -177.89969053 </i>
    <i name="atom">    629.45057577 </i>
    <i name="e_fr_energy">    -30.18743709 </i>
    <i name="e_wo_entrp">    -30.19295402 </i>
    <i name="e_0_energy">    -30.18927607 </i>
   </energy>
  </scstep>
  <structure>
   <crystal>
    <varray name="basis" >
     <v>      10.16000000       0.00000000       0.00000000 </v>
     <v>       0.00000000      11.76000000       0.00000000 </v>
     <v>       0.00000000       0.00000000      15.00000000 </v>
    </varray>
    <i name="volume">   1792.22400000 </i>
    <varray name="rec_basis" >
     <v>       0.09842520       0.00000000       0.00000000 </v>
     <v>       0.00000000       0.08503401       0.00000000 </v>
     <v>       0.00000000       0.00000000       0.06666667 </v>
    </varray>
   </crystal>
   <varray name="positions" >
    <v>       0.13199700       0.98006240       0.97420755 </v>
    <v>      -0.00222412       0.00029566       0.00064811 </v>
    <v>       0.16521595       0.89678520       0.99890904 </v>
    <v>       0.19597565       0.04859863       0.99891068 </v>
    <v>       0.13533471       0.97953632       0.90109187 </v>
    <v>      -0.00091919       0.00014179       0.06576276 </v>
   </varray>
  </structure>
  <varray name="forces" >
   <v>      -0.32246757       0.05046573       0.03343566 </v>
   <v>       0.18680318      -0.03930150       0.19507728 </v>
   <v>       0.21093426      -0.01860261      -0.01584761 </v>
   <v>       0.20666696      -0.04359517      -0.01199086 </v>
   <v>      -0.07014121       0.01388488       0.02617689 </v>
   <v>      -0.21179562       0.03714867      -0.22685136 </v>
  </varray>
  <varray name="stress" >
   <v>       0.10954354      -0.03309684       0.02830100 </v>
   <v>      -0.03309685      -0.11707230       0.00363762 </v>
   <v>       0.02830100       0.00363762      -0.29779855 </v>
  </varray>
  <energy>
   <i name="e_fr_energy">    -30.18743709 </i>
   <i name="e_wo_entrp">    -30.18927607 </i>
   <i name="e_0_energy">      0.00551693 </i>
  </energy>
  <time name="totalsc">   30.85   30.89</time>
 </calculation>
 <calculation>
  <scstep>
   <time name="dav">    4.80    4.80</time>
   <time name="total">    6.14    6.15</time>
   <dipole>
    <v name="dipole">      0.00000000       0.00000000      -0.20317580 </v>
    <i name="Tr[quadrupol]">    -17.50840287 </i>
    <i name="Echarged">      0.00000000 </i>
    <i name="Edipol_quadrupol">      0.00000000 </i>
    <i name="Eion">      0.00000000 </i>
   </dipole>
   <energy>
    <i name="alphaZ">      0.45163452 </i>
    <i name="ewald">    370.12199431 </i>
    <i name="hartreedc">   -902.59123295 </i>
    <i name="XCdc">     53.30632319 </i>
    <i name="pawpsdc">    934.99481154 </i>
    <i name="pawaedc">   -937.80098690 </i>
    <i name="eentropy">      0.00552422 </i>
    <i name="bandstr">   -178.13299160 </i>
    <i name="atom">    629.45057577 </i>
    <i name="e_fr_energy">    -30.19434789 </i>
    <i name="e_wo_entrp">    -30.19987211 </i>
    <i name="e_0_energy">    -30.19618930 </i>
   </energy>
  </scstep>
  <scstep>
   <time name="dav">    4.40    4.40</time>
   <time name="total">    5.71    5.71</time>
   <dipole>
    <v name="dipole">      0.00000000       0.00000000      -0.20351879 </v>
    <i name="Tr[quadrupol]">    -17.43542222 </i>
    <i name="Echarged">      0.00000000 </i>
    <i name="Edipol_quadrupol">      0.00000000 </i>
    <i name="Eion">      0.00000000 </i>
   </dipole>
   <energy>
    <i name="e_fr_energy">    -30.19453060 </i>
    <i name="e_wo_entrp">    -30.20002031 </i>
    <i name="e_0_energy">    -30.19636050 </i>
   </energy>
  </scstep>
  <scstep>
   <time name="dav">    4.83    4.83</time>
   <time name="total">    5.88    5.88</time>
   <dipole>
    <v name="dipole">      0.00000000       0.00000000      -0.20383110 </v>
    <i name="Tr[quadrupol]">    -17.39869721 </i>
    <i name="Echarged">      0.00000000 </i>
    <i name="Edipol_quadrupol">      0.00000000 </i>
    <i name="Eion">      0.00000000 </i>
   </dipole>
   <energy>
    <i name="alphaZ">      0.37343957 </i>
    <i name="ewald">    370.12199431 </i>
    <i name="hartreedc">   -902.62534523 </i>
    <i name="XCdc">     53.30855987 </i>
    <i name="pawpsdc">    935.99942701 </i>
    <i name="pawaedc">   -938.80885073 </i>
    <i name="eentropy">      0.00561262 </i>
    <i name="bandstr">   -178.01994371 </i>
    <i name="atom">    629.45057577 </i>
    <i name="e_fr_energy">    -30.19453052 </i>
    <i name="e_wo_entrp">    -30.20014314 </i>
    <i name="e_0_energy">    -30.19640139 </i>
   </energy>
  </scstep>
  <structure>
   <crystal>
    <varray name="basis" >
     <v>      10.16000000       0.00000000       0.00000000 </v>
     <v>       0.00000000      11.76000000       0.00000000 </v>
     <v>       0.00000000       0.00000000      15.00000000 </v>
    </varray>
    <i name="volume">   1792.22400000 </i>
    <varray name="rec_basis" >
     <v>       0.09842520       0.00000000       0.00000000 </v>
     <v>       0.00000000       0.08503401       0.00000000 </v>
     <v>       0.00000000       0.00000000       0.06666667 </v>
    </varray>
   </crystal>
   <varray name="positions" >
    <v>       0.13150914       0.98013768       0.97435106 </v>
    <v>      -0.00242782       0.00028577       0.00073721 </v>
    <v>       0.16631805       0.89699631       0.99871862 </v>
    <v>       0.19693474       0.04810684       0.99872774 </v>
    <v>       0.13491691       0.97960528       0.90134952 </v>
    <v>      -0.00187102       0.00028812       0.06564585 </v>
   </varray>
  </structure>
  <varray name="forces" >
   <v>      -0.12710658       0.02355774       0.06684189 </v>
   <v>       0.20337063      -0.03739521       0.07068244 </v>
   <v>       0.10218214      -0.00646684      -0.01279757 </v>
   <v>       0.09351839      -0.02656229      -0.01139910 </v>
   <v>      -0.08744292       0.01566696      -0.03358201 </v>
   <v>      -0.18452166       0.03119963      -0.07974565 </v>
  </varray>
  <varray name="stress" >
   <v>      -0.03342664      -0.01122113      -0.00282885 </v>
   <v>      -0.01122113      -0.12241615       0.00844627 </v>
   <v>      -0.00282885       0.00844628      -0.10313641 </v>
  </varray>
  <energy>
   <i name="e_fr_energy">    -30.19453052 </i>
   <i name="e_wo_entrp">    -30.19640139 </i>
   <i name="e_0_energy">      0.00561262 </i>
  </energy>
  <time name="totalsc">   25.54   25.56</time>
 </calculation>
 <calculation>
  <scstep>
   <time name="dav">    4.43    4.43</time>
   <time name="total">    5.75    5.75</time>
   <dipole>
    <v name="dipole">      0.00000000       0.00000000      -0.20412112 </v>
    <i name="Tr[quadrupol]">    -17.50673400 </i>
    <i name="Echarged">      0.00000000 </i>
    <i name="Edipol_quadrupol">      0.00000000 </i>
    <i name="Eion">      0.00000000 </i>
   </dipole>
   <energy>
    <i name="alphaZ">      0.45210791 </i>
    <i name="ewald">    370.54112168 </i>
    <i name="hartreedc">   -902.83311847 </i>
    <i name="XCdc">     53.32025577 </i>
    <i name="pawpsdc">    936.48862098 </i>
    <i name="pawaedc">   -939.29855840 </i>
    <i name="eentropy">      0.00522469 </i>
    <i name="bandstr">   -178.32328138 </i>
    <i name="atom">    629.45057577 </i>
    <i name="e_fr_energy">    -30.19705144 </i>
    <i name="e_wo_entrp">    -30.20227613 </i>
    <i name="e_0_energy">    -30.19879301 </i>
   </energy>
  </scstep>
  <scstep>
   <time name="dav">    4.62    4.62</time>
   <time name="total">    5.92    5.92</time>
   <dipole>
    <v name="dipole">      0.00000000       0.00000000      -0.20447504 </v>
    <i name="Tr[quadrupol]">    -17.43325095 </i>
    <i name="Echarged">      0.00000000 </i>
    <i name="Edipol_quadrupol">      0.00000000 </i>
    <i name="Eion">      0.00000000 </i>
   </dipole>
   <energy>
    <i name="e_fr_energy">    -30.19711183 </i>
    <i name="e_wo_entrp">    -30.20330313 </i>
    <i name="e_0_energy">    -30.19917559 </i>
   </energy>
  </scstep>
  <scstep>
   <time name="dav">    4.48    4.48</time>
   <time name="total">    5.77    5.78</time>
   <dipole>
    <v name="dipole">      0.00000000       0.00000000      -0.20457901 </v>
    <i name="Tr[quadrupol]">    -17.39650991 </i>
    <i name="Echarged">      0.00000000 </i>
    <i name="Edipol_quadrupol">      0.00000000 </i>
    <i name="Eion">      0.00000000 </i>
   </dipole>
   <energy>
    <i name="e_fr_energy">    -30.19723260 </i>
    <i name="e_wo_entrp">    -30.20235505 </i>
    <i name="e_0_energy">    -30.19894008 </i>
   </energy>
  </scstep>
  <scstep>
   <time name="dav">    4.45    4.45</time>
   <time name="total">    5.46    5.46</time>
   <dipole>
    <v name="dipole">      0.00000000       0.00000000      -0.20490830 </v>
    <i name="Tr[quadrupol]">    -17.35935653 </i>
    <i name="Echarged">      0.00000000 </i>
    <i name="Edipol_quadrupol">      0.00000000 </i>
    <i name="Eion">      0.00000000 </i>
   </dipole>
   <energy>
    <i name="alphaZ">      0.34728377 </i>
    <i name="ewald">    370.54112168 </i>
    <i name="hartreedc">   -902.85013936 </i>
    <i name="XCdc">     53.32173582 </i>
    <i name="pawpsdc">    937.85856339 </i>
    <i name="pawaedc">   -940.67220478 </i>
    <i name="eentropy">      0.00559569 </i>
    <i name="bandstr">   -178.19986276 </i>
    <i name="atom">    629.45057577 </i>
    <i name="e_fr_energy">    -30.19733077 </i>
    <i name="e_wo_entrp">    -30.20292646 </i>
    <i name="e_0_energy">    -30.19919600 </i>
   </energy>
  </scstep>
  <structure>
   <crystal>
    <varray name="basis" >
     <v>      10.16000000       0.00000000       0.00000000 </v>
     <v>       0.00000000      11.76000000       0.00000000 </v>
     <v>       0.00000000       0.00000000      15.00000000 </v>
    </varray>
    <i name="volume">   1792.22400000 </i>
    <varray name="rec_basis" >
     <v>       0.09842520       0.00000000       0.00000000 </v>
     <v>       0.00000000       0.08503401       0.00000000 </v>
     <v>       0.00000000       0.00000000       0.06666667 </v>
    </varray>
   </crystal>
   <varray name="positions" >
    <v>       0.13093345       0.98022652       0.97452042 </v>
    <v>      -0.00266818       0.00027409       0.00084234 </v>
    <v>       0.16761856       0.89724542       0.99849391 </v>
    <v>       0.19806650       0.04752651       0.99851187 </v>
    <v>       0.13442389       0.97968666       0.90165356 </v>
    <v>      -0.00299422       0.00046079       0.06550789 </v>
   </varray>
  </structure>
  <varray name="forces" >
   <v>       0.14340845      -0.02465466       0.10463660 </v>
   <v>       0.19585400      -0.03900367      -0.08101316 </v>
   <v>      -0.02862623       0.01691043      -0.00781268 </v>
   <v>      -0.04438076      -0.00504714      -0.00914734 </v>
   <v>      -0.10803332       0.02233080      -0.10519436 </v>
   <v>      -0.15822215       0.02946424       0.09853095 </v>
  </varray>
  <varray name="stress" >
   <v>      -0.19305187       0.00522519      -0.03259430 </v>
   <v>       0.00522520      -0.14268016       0.01218589 </v>
   <v>      -0.03259430       0.01218588       0.10468082 </v>
  </varray>
  <energy>
   <i name="e_fr_energy">    -30.19733077 </i>
   <i name="e_wo_entrp">    -30.19919600 </i>
   <i name="e_0_energy">      0.00559569 </i>
  </energy>
  <time name="totalsc">   30.72   30.77</time>
 </calculation>
 <calculation>
  <scstep>
   <time name="dav">    4.53    4.53</time>
   <time name="total">    5.84    5.85</time>
   <dipole>
    <v name="dipole">      0.00000000       0.00000000      -0.20519375 </v>
    <i name="Tr[quadrupol]">    -17.38577825 </i>
    <i name="Echarged">      0.00000000 </i>
    <i name="Edipol_quadrupol">      0.00000000 </i>
    <i name="Eion">      0.00000000 </i>
   </dipole>
   <energy>
    <i name="alphaZ">      0.34727043 </i>
    <i name="ewald">    371.03672277 </i>
    <i name="hartreedc">   -903.28434595 </i>
    <i name="XCdc">     53.32137674 </i>
    <i name="pawpsdc">    938.30963984 </i>
    <i name="pawaedc">   -941.12338235 </i>
    <i name="eentropy">      0.00553853 </i>
    <i name="bandstr">   -178.26253560 </i>
    <i name="atom">    629.45057577 </i>
    <i name="e_fr_energy">    -30.19913981 </i>
    <i name="e_wo_entrp">    -30.20467834 </i>
    <i name="e_0_energy">    -30.20098599 </i>
   </energy>
  </scstep>
  <scstep>
   <time name="dav">    4.89    4.89</time>
   <time name="total">    6.17    6.17</time>
   <dipole>
    <v name="dipole">      0.00000000       0.00000000      -0.20569941 </v>
    <i name="Tr[quadrupol]">    -17.42187855 </i>
    <i name="Echarged">      0.00000000 </i>
    <i name="Edipol_quadrupol">      0.00000000 </i>
    <i name="Eion">      0.00000000 </i>
   </dipole>
   <energy>
    <i name="e_fr_energy">    -30.19945086 </i>
    <i name="e_wo_entrp">    -30.20496903 </i>
    <i name="e_0_energy">    -30.20129025 </i>
   </energy>
  </scstep>
  <scstep>
   <time name="dav">    5.35    5.35</time>
   <time name="total">    6.40    6.40</time>
   <dipole>
    <v name="dipole">      0.00000000       0.00000000      -0.20623611 </v>
    <i name="Tr[quadrupol]">    -17.42116952 </i>
    <i name="Echarged">      0.00000000 </i>
    <i name="Edipol_quadrupol">      0.00000000 </i>
    <i name="Eion">      0.00000000 </i>
   </dipole>
   <energy>
    <i name="alphaZ">      0.37331031 </i>
    <i name="ewald">    371.03672277 </i>
    <i name="hartreedc">   -903.31571273 </i>
    <i name="XCdc">     53.32214295 </i>
    <i name="pawpsdc">    939.10542544 </i>
    <i name="pawaedc">   -941.91915334 </i>
    <i name="eentropy">      0.00559281 </i>
    <i name="bandstr">   -178.25829931 </i>
    <i name="atom">    629.45057577 </i>
    <i name="e_fr_energy">    -30.19939532 </i>
    <i name="e_wo_entrp">    -30.20498814 </i>
    <i name="e_0_energy">    -30.20125960 </i>
   </energy>
  </scstep>
  <structure>
   <crystal>
    <varray name="basis" >
     <v>      10.16000000       0.00000000       0.00000000 </v>
     <v>       0.00000000      11.76000000       0.00000000 </v>
     <v>       0.00000000       0.00000000      15.00000000 </v>
    </varray>
    <i name="volume">   1792.22400000 </i>
    <varray name="rec_basis" >
     <v>       0.09842520       0.00000000       0.00000000 </v>
     <v>       0.00000000       0.08503401       0.00000000 </v>
     <v>       0.00000000       0.00000000       0.06666667 </v>
    </varray>
   </crystal>
   <varray name="positions" >
    <v>       0.13110434       0.98020263       0.97480747 </v>
    <v>      -0.00219114       0.00016835       0.00072556 </v>
    <v>       0.16811367       0.89740021       0.99837782 </v>
    <v>       0.19843927       0.04725446       0.99839702 </v>
    <v>       0.13388150       0.97978055       0.90157670 </v>
    <v>      -0.00396764       0.00061381       0.06564542 </v>
   </varray>
  </structure>
  <varray name="forces" >
   <v>       0.15698788      -0.02768714      -0.18127685 </v>
   <v>       0.04076767      -0.00663030       0.16592993 </v>
   <v>      -0.01605638      -0.06180702       0.03136620 </v>
   <v>      -0.00573197       0.06381210       0.03147261 </v>
   <v>      -0.06395791       0.01287483       0.04951398 </v>
   <v>      -0.11200929       0.01943753      -0.09700587 </v>
  </varray>
  <varray name="stress" >
   <v>      -0.01952397      -0.00030500      -0.04981844 </v>
   <v>      -0.00030500      -0.00068057       0.01860138 </v>
   <v>      -0.04981844       0.01860138      -0.12878478 </v>
  </varray>
  <energy>
   <i name="e_fr_energy">    -30.19939532 </i>
   <i name="e_wo_entrp">    -30.20125960 </i>
   <i name="e_0_energy">      0.00559281 </i>
  </energy>
  <time name="totalsc">   26.25   26.27</time>
 </calculation>
 <calculation>
  <scstep>
   <time name="dav">    4.61    4.61</time>
   <time name="total">    5.94    5.94</time>
   <dipole>
    <v name="dipole">      0.00000000       0.00000000      -0.20693105 </v>
    <i name="Tr[quadrupol]">    -17.42107229 </i>
    <i name="Echarged">      0.00000000 </i>
    <i name="Edipol_quadrupol">      0.00000000 </i>
    <i name="Eion">      0.00000000 </i>
   </dipole>
   <energy>
    <i name="alphaZ">      0.37315725 </i>
    <i name="ewald">    371.05352350 </i>
    <i name="hartreedc">   -903.32388637 </i>
    <i name="XCdc">     53.32197304 </i>
    <i name="pawpsdc">    939.34093964 </i>
    <i name="pawaedc">   -942.15523746 </i>
    <i name="eentropy">      0.00527225 </i>
    <i name="bandstr">   -178.26571252 </i>
    <i name="atom">    629.45057577 </i>
    <i name="e_fr_energy">    -30.19939489 </i>
    <i name="e_wo_entrp">    -30.20466714 </i>
    <i name="e_0_energy">    -30.20115230 </i>
   </energy>
  </scstep>
  <scstep>
   <time name="dav">    4.58    4.58</time>
   <time name="total">    5.94    5.94</time>
   <dipole>
    <v name="dipole">      0.00000000       0.00000000      -0.20722666 </v>
    <i name="Tr[quadrupol]">    -17.42057492 </i>
    <i name="Echarged">      0.00000000 </i>
    <i name="Edipol_quadrupol">      0.00000000 </i>
    <i name="Eion">      0.00000000 </i>
   </dipole>
   <energy>
    <i name="e_fr_energy">    -30.19927987 </i>
    <i name="e_wo_entrp">    -30.20539875 </i>
    <i name="e_0_energy">    -30.20131950 </i>
   </energy>
  </scstep>
  <scstep>
   <time name="dav">    4.41    4.41</time>
   <time name="total">    5.73    5.73</time>
   <dipole>
    <v name="dipole">      0.00000000       0.00000000      -0.20730574 </v>
    <i name="Tr[quadrupol]">    -17.42044114 </i>
    <i name="Echarged">      0.00000000 </i>
    <i name="Edipol_quadrupol">      0.00000000 </i>
    <i name="Eion">      0.00000000 </i>
   </dipole>
   <energy>
    <i name="e_fr_energy">    -30.19940799 </i>
    <i name="e_wo_entrp">    -30.20494274 </i>
    <i name="e_0_energy">    -30.20125291 </i>
   </energy>
  </scstep>
  <scstep>
   <time name="dav">    4.91    4.91</time>
   <time name="total">    5.99    6.00</time>
   <dipole>
    <v name="dipole">      0.00000000       0.00000000      -0.20776388 </v>
    <i name="Tr[quadrupol]">    -17.41965340 </i>
    <i name="Echarged">      0.00000000 </i>
    <i name="Edipol_quadrupol">      0.00000000 </i>
    <i name="Eion">      0.00000000 </i>
   </dipole>
   <energy>
    <i name="alphaZ">      0.37297012 </i>
    <i name="ewald">    371.05352350 </i>
    <i name="hartreedc">   -903.33552601 </i>
    <i name="XCdc">     53.32274411 </i>
    <i name="pawpsdc">    939.63649335 </i>
    <i name="pawaedc">   -942.45112580 </i>
    <i name="eentropy">      0.00553156 </i>
    <i name="bandstr">   -178.25465490 </i>
    <i name="atom">    629.45057577 </i>
    <i name="e_fr_energy">    -30.19946828 </i>
    <i name="e_wo_entrp">    -30.20499985 </i>
    <i name="e_0_energy">    -30.20131214 </i>
   </energy>
  </scstep>
  <structure>
   <crystal>
    <varray name="basis" >
     <v>      10.16000000       0.00000000       0.00000000 </v>
     <v>       0.00000000      11.76000000       0.00000000 </v>
     <v>       0.00000000       0.00000000      15.00000000 </v>
    </varray>
    <i name="volume">   1792.22400000 </i>
    <varray name="rec_basis" >
     <v>       0.09842520       0.00000000       0.00000000 </v>
     <v>       0.00000000       0.08503401       0.00000000 </v>
     <v>       0.00000000       0.00000000       0.06666667 </v>
    </varray>
   </crystal>
   <varray name="positions" >
    <v>       0.13111024       0.98020180       0.97481738 </v>
    <v>      -0.00217467       0.00016470       0.00072153 </v>
    <v>       0.16813075       0.89740555       0.99837382 </v>
    <v>       0.19845214       0.04724507       0.99839306 </v>
    <v>       0.13386278       0.97978379       0.90157404 </v>
    <v>      -0.00400124       0.00061910       0.06565017 </v>
   </varray>
  </structure>
  <varray name="forces" >
   <v>       0.15691205      -0.02796731      -0.19442920 </v>
   <v>       0.03780722      -0.00587750       0.18265188 </v>
   <v>      -0.01515770      -0.06704894       0.03224602 </v>
   <v>      -0.00308569       0.06859675       0.03245208 </v>
   <v>      -0.06333423       0.01268908       0.05644509 </v>
   <v>      -0.11314165       0.01960792      -0.10936586 </v>
  </varray>
  <varray name="stress" >
   <v>      -0.00611110      -0.00025692      -0.04677466 </v>
   <v>      -0.00025692       0.01153489       0.01769224 </v>
   <v>      -0.04677466       0.01769224      -0.15499983 </v>
  </varray>
  <energy>
   <i name="e_fr_energy">    -30.19946828 </i>
   <i name="e_wo_entrp">    -30.20131214 </i>
   <i name="e_0_energy">      0.00553156 </i>
  </energy>
  <time name="totalsc">   31.40   31.42</time>
 </calculation>
 <calculation>
  <scstep>
   <time name="dav">    4.11    4.11</time>
   <time name="total">    5.39    5.39</time>
   <dipole>
[...]
       <r>    -5.5730    -0.0000     7.0000 </r>
       <r>    -5.4758     0.0000     7.0000 </r>
       <r>    -5.3786     0.0000     7.0000 </r>
       <r>    -5.2814     0.0000     7.0000 </r>
       <r>    -5.1842     0.0000     7.0000 </r>
       <r>    -5.0870     0.0000     7.0000 </r>
       <r>    -4.9898     0.0000     7.0000 </r>
       <r>    -4.8926     0.0000     7.0000 </r>
       <r>    -4.7954     0.0000     7.0000 </r>
       <r>    -4.6982     0.0000     7.0000 </r>
       <r>    -4.6011     0.0000     7.0000 </r>
       <r>    -4.5039     0.0000     7.0000 </r>
       <r>    -4.4067     0.0000     7.0000 </r>
       <r>    -4.3095     0.0000     7.0000 </r>
       <r>    -4.2123     0.0000     7.0000 </r>
       <r>    -4.1151     0.0000     7.0000 </r>
       <r>    -4.0179     0.0000     7.0000 </r>
       <r>    -3.9207     0.0000     7.0000 </r>
       <r>    -3.8235     0.0000     7.0000 </r>
       <r>    -3.7263     0.0000     7.0000 </r>
       <r>    -3.6291     0.0000     7.0000 </r>
       <r>    -3.5319     0.0000     7.0000 </r>
       <r>    -3.4347     0.0000     7.0000 </r>
       <r>    -3.3376     0.0000     7.0000 </r>
       <r>    -3.2404     0.0000     7.0000 </r>
       <r>    -3.1432     0.0000     7.0000 </r>
       <r>    -3.0460     0.0000     7.0000 </r>
       <r>    -2.9488     0.0000     7.0000 </r>
       <r>    -2.8516     0.0000     7.0000 </r>
       <r>    -2.7544     0.0000     7.0000 </r>
       <r>    -2.6572     0.0000     7.0000 </r>
       <r>    -2.5600     0.0000     7.0000 </r>
       <r>    -2.4628     0.0000     7.0000 </r>
       <r>    -2.3656     0.0000     7.0000 </r>
       <r>    -2.2684     0.0000     7.0000 </r>
       <r>    -2.1713     0.0000     7.0000 </r>
       <r>    -2.0741     0.0000     7.0000 </r>
       <r>    -1.9769     0.0000     7.0000 </r>
       <r>    -1.8797     0.0000     7.0000 </r>
       <r>    -1.7825     0.0000     7.0000 </r>
       <r>    -1.6853     0.0000     7.0000 </r>
       <r>    -1.5881    -0.0000     7.0000 </r>
       <r>    -1.4909    -0.0000     7.0000 </r>
       <r>    -1.3937    -0.0000     7.0000 </r>
       <r>    -1.2965    -0.0000     7.0000 </r>
       <r>    -1.1993    -0.0000     7.0000 </r>
       <r>    -1.1021    -0.0000     7.0000 </r>
       <r>    -1.0049    -0.0001     7.0000 </r>
       <r>    -0.9078    -0.0090     6.9991 </r>
       <r>    -0.8106    -0.1556     6.9840 </r>
       <r>    -0.7134     0.6291     7.0451 </r>
       <r>    -0.6162     5.8097     7.6098 </r>
       <r>    -0.5190     4.1990     8.0179 </r>
       <r>    -0.4218    -0.1046     8.0077 </r>
       <r>    -0.3246    -0.0788     8.0001 </r>
       <r>    -0.2274    -0.0395     7.9962 </r>
       <r>    -0.1302    -0.1897     7.9778 </r>
       <r>    -0.0330     2.4263     8.2136 </r>
       <r>     0.0642     6.3156     8.8275 </r>
       <r>     0.1614     1.9987     9.0217 </r>
       <r>     0.2586     1.5936     9.1766 </r>
       <r>     0.3557     5.1724     9.6793 </r>
       <r>     0.4529     6.1484    10.2769 </r>
       <r>     0.5501     4.1272    10.6780 </r>
       <r>     0.6473     1.7162    10.8448 </r>
       <r>     0.7445     5.6289    11.3919 </r>
       <r>     0.8417     7.3123    12.1026 </r>
       <r>     0.9389     9.7698    13.0522 </r>
       <r>     1.0361     5.7717    13.6131 </r>
       <r>     1.1333     1.9539    13.8030 </r>
       <r>     1.2305     1.9609    13.9936 </r>
       <r>     1.3277     0.1219    14.0055 </r>
       <r>     1.4249    -0.0547    14.0002 </r>
       <r>     1.5221    -0.0016    14.0000 </r>
       <r>     1.6192    -0.0000    14.0000 </r>
       <r>     1.7164    -0.0000    14.0000 </r>
       <r>     1.8136    -0.0000    14.0000 </r>
       <r>     1.9108     0.0000    14.0000 </r>
       <r>     2.0080     0.0000    14.0000 </r>
       <r>     2.1052     0.0000    14.0000 </r>
       <r>     2.2024     0.0000    14.0000 </r>
       <r>     2.2996     0.0000    14.0000 </r>
       <r>     2.3968     0.0000    14.0000 </r>
       <r>     2.4940     0.0000    14.0000 </r>
      </set>
      <set comment="spin 2">
       <r>   -26.6637     0.0000     0.0000 </r>
       <r>   -26.5665     0.0000     0.0000 </r>
       <r>   -26.4693     0.0000     0.0000 </r>
       <r>   -26.3721     0.0000     0.0000 </r>
       <r>   -26.2749     0.0000     0.0000 </r>
       <r>   -26.1777    -0.0000    -0.0000 </r>
       <r>   -26.0805    -0.0000    -0.0000 </r>
       <r>   -25.9833    -0.0000    -0.0000 </r>
       <r>   -25.8862    -0.0000    -0.0000 </r>
       <r>   -25.7890    -0.0000    -0.0000 </r>
       <r>   -25.6918    -0.0000    -0.0000 </r>
       <r>   -25.5946    -0.0011    -0.0001 </r>
       <r>   -25.4974    -0.0805    -0.0079 </r>
       <r>   -25.4002    -0.2065    -0.0280 </r>
       <r>   -25.3030     4.9240     0.4506 </r>
       <r>   -25.2058     5.7934     1.0137 </r>
       <r>   -25.1086    -0.0234     1.0114 </r>
       <r>   -25.0114    -0.1149     1.0002 </r>
       <r>   -24.9142    -0.0021     1.0000 </r>
       <r>   -24.8170    -0.0000     1.0000 </r>
       <r>   -24.7198    -0.0000     1.0000 </r>
       <r>   -24.6227    -0.0000     1.0000 </r>
       <r>   -24.5255     0.0000     1.0000 </r>
       <r>   -24.4283     0.0000     1.0000 </r>
       <r>   -24.3311     0.0000     1.0000 </r>
       <r>   -24.2339     0.0000     1.0000 </r>
       <r>   -24.1367     0.0000     1.0000 </r>
       <r>   -24.0395     0.0000     1.0000 </r>
       <r>   -23.9423     0.0000     1.0000 </r>
       <r>   -23.8451     0.0000     1.0000 </r>
       <r>   -23.7479     0.0000     1.0000 </r>
       <r>   -23.6507     0.0000     1.0000 </r>
       <r>   -23.5535     0.0000     1.0000 </r>
       <r>   -23.4563     0.0000     1.0000 </r>
       <r>   -23.3592     0.0000     1.0000 </r>
       <r>   -23.2620     0.0000     1.0000 </r>
       <r>   -23.1648     0.0000     1.0000 </r>
       <r>   -23.0676     0.0000     1.0000 </r>
       <r>   -22.9704     0.0000     1.0000 </r>
       <r>   -22.8732     0.0000     1.0000 </r>
       <r>   -22.7760     0.0000     1.0000 </r>
       <r>   -22.6788     0.0000     1.0000 </r>
       <r>   -22.5816     0.0000     1.0000 </r>
       <r>   -22.4844     0.0000     1.0000 </r>
       <r>   -22.3872     0.0000     1.0000 </r>
       <r>   -22.2900     0.0000     1.0000 </r>
       <r>   -22.1928     0.0000     1.0000 </r>
       <r>   -22.0957     0.0000     1.0000 </r>
       <r>   -21.9985     0.0000     1.0000 </r>
       <r>   -21.9013     0.0000     1.0000 </r>
       <r>   -21.8041     0.0000     1.0000 </r>
       <r>   -21.7069     0.0000     1.0000 </r>
       <r>   -21.6097     0.0000     1.0000 </r>
       <r>   -21.5125     0.0000     1.0000 </r>
       <r>   -21.4153     0.0000     1.0000 </r>
       <r>   -21.3181     0.0000     1.0000 </r>
       <r>   -21.2209     0.0000     1.0000 </r>
       <r>   -21.1237     0.0000     1.0000 </r>
       <r>   -21.0265     0.0000     1.0000 </r>
       <r>   -20.9293     0.0000     1.0000 </r>
       <r>   -20.8322     0.0000     1.0000 </r>
       <r>   -20.7350     0.0000     1.0000 </r>
       <r>   -20.6378     0.0000     1.0000 </r>
       <r>   -20.5406     0.0000     1.0000 </r>
       <r>   -20.4434     0.0000     1.0000 </r>
       <r>   -20.3462     0.0000     1.0000 </r>
       <r>   -20.2490     0.0000     1.0000 </r>
       <r>   -20.1518     0.0000     1.0000 </r>
       <r>   -20.0546     0.0000     1.0000 </r>
       <r>   -19.9574     0.0000     1.0000 </r>
       <r>   -19.8602     0.0000     1.0000 </r>
       <r>   -19.7630     0.0000     1.0000 </r>
       <r>   -19.6658     0.0000     1.0000 </r>
       <r>   -19.5687     0.0000     1.0000 </r>
       <r>   -19.4715     0.0000     1.0000 </r>
       <r>   -19.3743     0.0000     1.0000 </r>
       <r>   -19.2771     0.0000     1.0000 </r>
       <r>   -19.1799     0.0000     1.0000 </r>
       <r>   -19.0827     0.0000     1.0000 </r>
       <r>   -18.9855     0.0000     1.0000 </r>
       <r>   -18.8883     0.0000     1.0000 </r>
       <r>   -18.7911     0.0000     1.0000 </r>
       <r>   -18.6939     0.0000     1.0000 </r>
       <r>   -18.5967     0.0000     1.0000 </r>
       <r>   -18.4995     0.0000     1.0000 </r>
       <r>   -18.4024     0.0000     1.0000 </r>
       <r>   -18.3052     0.0000     1.0000 </r>
       <r>   -18.2080     0.0000     1.0000 </r>
       <r>   -18.1108     0.0000     1.0000 </r>
       <r>   -18.0136     0.0000     1.0000 </r>
       <r>   -17.9164     0.0000     1.0000 </r>
       <r>   -17.8192     0.0000     1.0000 </r>
       <r>   -17.7220     0.0000     1.0000 </r>
       <r>   -17.6248     0.0000     1.0000 </r>
       <r>   -17.5276    -0.0000     1.0000 </r>
       <r>   -17.4304    -0.0000     1.0000 </r>
       <r>   -17.3332    -0.0000     1.0000 </r>
       <r>   -17.2360    -0.0000     1.0000 </r>
       <r>   -17.1389    -0.0000     1.0000 </r>
       <r>   -17.0417    -0.0001     1.0000 </r>
       <r>   -16.9445    -0.0159     0.9984 </r>
       <r>   -16.8473    -0.2859     0.9707 </r>
       <r>   -16.7501     1.6998     1.1359 </r>
       <r>   -16.6529     7.4550     1.8604 </r>
       <r>   -16.5557     1.7408     2.0296 </r>
       <r>   -16.4585    -0.2883     2.0016 </r>
       <r>   -16.3613    -0.0164     2.0000 </r>
       <r>   -16.2641    -0.0001     2.0000 </r>
       <r>   -16.1669    -0.0000     2.0000 </r>
       <r>   -16.0697    -0.0000     2.0000 </r>
       <r>   -15.9725     0.0000     2.0000 </r>
       <r>   -15.8754     0.0000     2.0000 </r>
       <r>   -15.7782     0.0000     2.0000 </r>
       <r>   -15.6810     0.0000     2.0000 </r>
       <r>   -15.5838     0.0000     2.0000 </r>
       <r>   -15.4866     0.0000     2.0000 </r>
       <r>   -15.3894     0.0000     2.0000 </r>
       <r>   -15.2922     0.0000     2.0000 </r>
       <r>   -15.1950     0.0000     2.0000 </r>
       <r>   -15.0978     0.0000     2.0000 </r>
       <r>   -15.0006     0.0000     2.0000 </r>
       <r>   -14.9034     0.0000     2.0000 </r>
       <r>   -14.8062     0.0000     2.0000 </r>
       <r>   -14.7090     0.0000     2.0000 </r>
       <r>   -14.6119     0.0000     2.0000 </r>
       <r>   -14.5147     0.0000     2.0000 </r>
       <r>   -14.4175     0.0000     2.0000 </r>
       <r>   -14.3203     0.0000     2.0000 </r>
       <r>   -14.2231     0.0000     2.0000 </r>
       <r>   -14.1259     0.0000     2.0000 </r>
       <r>   -14.0287     0.0000     2.0000 </r>
       <r>   -13.9315     0.0000     2.0000 </r>
       <r>   -13.8343     0.0000     2.0000 </r>
       <r>   -13.7371     0.0000     2.0000 </r>
       <r>   -13.6399     0.0000     2.0000 </r>
       <r>   -13.5427     0.0000     2.0000 </r>
       <r>   -13.4455     0.0000     2.0000 </r>
       <r>   -13.3484     0.0000     2.0000 </r>
       <r>   -13.2512     0.0000     2.0000 </r>
       <r>   -13.1540    -0.0000     2.0000 </r>
       <r>   -13.0568    -0.0000     2.0000 </r>
       <r>   -12.9596    -0.0000     2.0000 </r>
       <r>   -12.8624    -0.0000     2.0000 </r>
       <r>   -12.7652    -0.0000     2.0000 </r>
       <r>   -12.6680    -0.0002     2.0000 </r>
       <r>   -12.5708    -0.0275     1.9973 </r>
       <r>   -12.4736    -0.3223     1.9660 </r>
       <r>   -12.3764     2.5986     2.2185 </r>
       <r>   -12.2792     7.2876     2.9268 </r>
       <r>   -12.1820     0.9961     3.0236 </r>
       <r>   -12.0849    -0.2342     3.0009 </r>
       <r>   -11.9877    -0.0091     3.0000 </r>
       <r>   -11.8905    -0.0000     3.0000 </r>
       <r>   -11.7933    -0.0000     3.0000 </r>
       <r>   -11.6961    -0.0000     3.0000 </r>
       <r>   -11.5989     0.0000     3.0000 </r>
       <r>   -11.5017     0.0000     3.0000 </r>
       <r>   -11.4045     0.0000     3.0000 </r>
       <r>   -11.3073    -0.0000     3.0000 </r>
       <r>   -11.2101    -0.0000     3.0000 </r>
       <r>   -11.1129    -0.0000     3.0000 </r>
       <r>   -11.0157    -0.0000     3.0000 </r>
       <r>   -10.9186    -0.0000     3.0000 </r>
       <r>   -10.8214    -0.0000     3.0000 </r>
       <r>   -10.7242    -0.0071     2.9993 </r>
       <r>   -10.6270    -0.2119     2.9787 </r>
       <r>   -10.5298     0.7573     3.0523 </r>
       <r>   -10.4326     7.1142     3.7438 </r>
       <r>   -10.3354     2.6839     4.0046 </r>
       <r>   -10.2382     1.5431     4.1546 </r>
       <r>   -10.1410     7.4158     4.8753 </r>
       <r>   -10.0438     1.5755     5.0285 </r>
       <r>    -9.9466    -0.2783     5.0014 </r>
       <r>    -9.8494    -0.0146     5.0000 </r>
       <r>    -9.7522    -0.0001     5.0000 </r>
       <r>    -9.6551    -0.0000     5.0000 </r>
       <r>    -9.5579    -0.0000     5.0000 </r>
       <r>    -9.4607     0.0000     5.0000 </r>
       <r>    -9.3635     0.0000     5.0000 </r>
       <r>    -9.2663     0.0000     5.0000 </r>
       <r>    -9.1691     0.0000     5.0000 </r>
       <r>    -9.0719     0.0000     5.0000 </r>
       <r>    -8.9747     0.0000     5.0000 </r>
       <r>    -8.8775     0.0000     5.0000 </r>
       <r>    -8.7803     0.0000     5.0000 </r>
       <r>    -8.6831    -0.0000     5.0000 </r>
       <r>    -8.5859    -0.0000     5.0000 </r>
       <r>    -8.4887    -0.0000     5.0000 </r>
       <r>    -8.3916    -0.0000     5.0000 </r>
       <r>    -8.2944    -0.0000     5.0000 </r>
       <r>    -8.1972    -0.0001     5.0000 </r>
       <r>    -8.1000    -0.0223     4.9978 </r>
       <r>    -8.0028    -0.3115     4.9675 </r>
       <r>    -7.9056     2.2266     5.1840 </r>
       <r>    -7.8084     7.3954     5.9027 </r>
       <r>    -7.7112     1.2690     6.0261 </r>
       <r>    -7.6140    -0.2567     6.0011 </r>
       <r>    -7.5168    -0.0115     6.0000 </r>
       <r>    -7.4196    -0.0001     6.0000 </r>
       <r>    -7.3224    -0.0000     6.0000 </r>
       <r>    -7.2252    -0.0000     6.0000 </r>
       <r>    -7.1281     0.0000     6.0000 </r>
       <r>    -7.0309    -0.0000     6.0000 </r>
       <r>    -6.9337    -0.0000     6.0000 </r>
       <r>    -6.8365    -0.0000     6.0000 </r>
       <r>    -6.7393    -0.0000     6.0000 </r>
       <r>    -6.6421    -0.0000     6.0000 </r>
       <r>    -6.5449    -0.0000     6.0000 </r>
       <r>    -6.4477    -0.0005     6.0000 </r>
       <r>    -6.3505    -0.0509     5.9950 </r>
       <r>    -6.2533    -0.3075     5.9651 </r>
       <r>    -6.1561     3.8490     6.3392 </r>
       <r>    -6.0589     6.6361     6.9842 </r>
       <r>    -5.9617     0.3318     7.0164 </r>
       <r>    -5.8646    -0.1649     7.0004 </r>
       <r>    -5.7674    -0.0042     7.0000 </r>
       <r>    -5.6702    -0.0000     7.0000 </r>
       <r>    -5.5730    -0.0000     7.0000 </r>
       <r>    -5.4758    -0.0000     7.0000 </r>
       <r>    -5.3786     0.0000     7.0000 </r>
       <r>    -5.2814     0.0000     7.0000 </r>
       <r>    -5.1842     0.0000     7.0000 </r>
       <r>    -5.0870     0.0000     7.0000 </r>
       <r>    -4.9898     0.0000     7.0000 </r>
       <r>    -4.8926     0.0000     7.0000 </r>
       <r>    -4.7954     0.0000     7.0000 </r>
       <r>    -4.6982     0.0000     7.0000 </r>
       <r>    -4.6011     0.0000     7.0000 </r>
       <r>    -4.5039     0.0000     7.0000 </r>
       <r>    -4.4067     0.0000     7.0000 </r>
       <r>    -4.3095     0.0000     7.0000 </r>
       <r>    -4.2123     0.0000     7.0000 </r>
       <r>    -4.1151     0.0000     7.0000 </r>
       <r>    -4.0179     0.0000     7.0000 </r>
       <r>    -3.9207     0.0000     7.0000 </r>
       <r>    -3.8235     0.0000     7.0000 </r>
       <r>    -3.7263     0.0000     7.0000 </r>
       <r>    -3.6291     0.0000     7.0000 </r>
       <r>    -3.5319     0.0000     7.0000 </r>
       <r>    -3.4347     0.0000     7.0000 </r>
       <r>    -3.3376     0.0000     7.0000 </r>
       <r>    -3.2404     0.0000     7.0000 </r>
       <r>    -3.1432     0.0000     7.0000 </r>
       <r>    -3.0460     0.0000     7.0000 </r>
       <r>    -2.9488     0.0000     7.0000 </r>
       <r>    -2.8516     0.0000     7.0000 </r>
       <r>    -2.7544     0.0000     7.0000 </r>
       <r>    -2.6572     0.0000     7.0000 </r>
       <r>    -2.5600     0.0000     7.0000 </r>
       <r>    -2.4628     0.0000     7.0000 </r>
       <r>    -2.3656     0.0000     7.0000 </r>
       <r>    -2.2684     0.0000     7.0000 </r>
       <r>    -2.1713     0.0000     7.0000 </r>
       <r>    -2.0741     0.0000     7.0000 </r>
       <r>    -1.9769     0.0000     7.0000 </r>
       <r>    -1.8797     0.0000     7.0000 </r>
       <r>    -1.7825     0.0000     7.0000 </r>
       <r>    -1.6853     0.0000     7.0000 </r>
       <r>    -1.5881     0.0000     7.0000 </r>
       <r>    -1.4909    -0.0000     7.0000 </r>
       <r>    -1.3937    -0.0000     7.0000 </r>
       <r>    -1.2965    -0.0000     7.0000 </r>
       <r>    -1.1993    -0.0000     7.0000 </r>
       <r>    -1.1021    -0.0000     7.0000 </r>
       <r>    -1.0049    -0.0001     7.0000 </r>
       <r>    -0.9078    -0.0078     6.9992 </r>
       <r>    -0.8106    -0.1484     6.9848 </r>
       <r>    -0.7134     0.5332     7.0366 </r>
       <r>    -0.6162     5.6777     7.5885 </r>
       <r>    -0.5190     4.3919     8.0153 </r>
       <r>    -0.4218    -0.0710     8.0084 </r>
       <r>    -0.3246    -0.0854     8.0001 </r>
       <r>    -0.2274    -0.0323     7.9970 </r>
       <r>    -0.1302    -0.1991     7.9776 </r>
       <r>    -0.0330     2.0677     8.1786 </r>
       <r>     0.0642     6.2791     8.7889 </r>
       <r>     0.1614     2.3111     9.0135 </r>
       <r>     0.2586     1.1133     9.1217 </r>
       <r>     0.3557     4.5030     9.5594 </r>
       <r>     0.4529     6.3637    10.1779 </r>
       <r>     0.5501     4.7104    10.6357 </r>
       <r>     0.6473     1.6507    10.7961 </r>
       <r>     0.7445     4.6763    11.2506 </r>
       <r>     0.8417     7.0137    11.9323 </r>
       <r>     0.9389     9.1422    12.8208 </r>
       <r>     1.0361     7.5673    13.5563 </r>
       <r>     1.1333     2.4321    13.7927 </r>
       <r>     1.2305     2.0288    13.9899 </r>
       <r>     1.3277     0.1678    14.0062 </r>
       <r>     1.4249    -0.0618    14.0002 </r>
       <r>     1.5221    -0.0021    14.0000 </r>
       <r>     1.6192    -0.0000    14.0000 </r>
       <r>     1.7164    -0.0000    14.0000 </r>
       <r>     1.8136    -0.0000    14.0000 </r>
       <r>     1.9108     0.0000    14.0000 </r>
       <r>     2.0080     0.0000    14.0000 </r>
       <r>     2.1052     0.0000    14.0000 </r>
       <r>     2.2024     0.0000    14.0000 </r>
       <r>     2.2996     0.0000    14.0000 </r>
       <r>     2.3968     0.0000    14.0000 </r>
       <r>     2.4940     0.0000    14.0000 </r>
      </set>
     </set>
    </array>
   </total>
  </dos>
 </calculation>
 <structure name="finalpos" >
  <crystal>
   <varray name="basis" >
    <v>      10.16000000       0.00000000       0.00000000 </v>
    <v>       0.00000000      11.76000000       0.00000000 </v>
    <v>       0.00000000       0.00000000      15.00000000 </v>
   </varray>
   <i name="volume">   1792.22400000 </i>
   <varray name="rec_basis" >
    <v>       0.09842520       0.00000000       0.00000000 </v>
    <v>       0.00000000       0.08503401       0.00000000 </v>
    <v>       0.00000000       0.00000000       0.06666667 </v>
   </varray>
  </crystal>
  <varray name="positions" >
   <v>       0.13185269       0.98008935       0.97471829 </v>
   <v>      -0.00152548       0.00000390       0.00105673 </v>
   <v>       0.16863698       0.89698888       0.99816857 </v>
   <v>       0.19885993       0.04759241       0.99822893 </v>
   <v>       0.13285298       0.97995626       0.90158795 </v>
   <v>      -0.00529710       0.00078919       0.06576953 </v>
  </varray>
 </structure>
</modeling>
