Beta12Borophene !The name of the system 
           1
    10.160000    0.000000    0.000000
     0.000000   11.760000    0.000000
     0.000000    0.000000   15.000000
   C    O    H 
   1   1   4
Direct configuration=     1
   0.13033000  0.98029000  0.97436000
   0.00000000  0.00000000  0.00000000
   0.16408000  0.89617000  0.99926000
   0.19515000  0.04950000  0.99926000
   0.13582000  0.97946000  0.90049000
   0.00000000  0.00000000  0.06616000
Direct configuration=     2
   0.13525397  0.97956164  0.97324303
  -0.00502759  0.00075468  0.00389431
   0.16515419  0.89716311  0.99882022
   0.19576177  0.04824552  0.99881993
   0.13533327  0.97953119  0.90163268
  -0.00109560  0.00016385  0.06311983
Direct configuration=     3
   0.13157330  0.98010609  0.97407797
  -0.00126947  0.00019056  0.00098331
   0.16435123  0.89642076  0.99914896
   0.19530447  0.04918324  0.99914888
   0.13569710  0.97947798  0.90077853
  -0.00027664  0.00004137  0.06539236
Direct configuration=     4
   0.13211912  0.98004981  0.97424489
  -0.00249928  0.00032595  0.00055149
   0.16546519  0.89689025  0.99883989
   0.19616911  0.04843012  0.99884203
   0.13523026  0.97955314  0.90118218
  -0.00110439  0.00017073  0.06586952
Direct configuration=     5
   0.13199700  0.98006240  0.97420755
  -0.00222412  0.00029566  0.00064811
   0.16521595  0.89678520  0.99890904
   0.19597565  0.04859863  0.99891068
   0.13533471  0.97953632  0.90109187
  -0.00091919  0.00014179  0.06576276
Direct configuration=     6
   0.13150914  0.98013768  0.97435106
  -0.00242782  0.00028577  0.00073721
   0.16631805  0.89699631  0.99871862
   0.19693474  0.04810684  0.99872774
   0.13491691  0.97960528  0.90134952
  -0.00187102  0.00028812  0.06564585
Direct configuration=     7
   0.13093345  0.98022652  0.97452042
  -0.00266818  0.00027409  0.00084234
   0.16761856  0.89724542  0.99849391
   0.19806650  0.04752651  0.99851187
   0.13442389  0.97968666  0.90165356
  -0.00299422  0.00046079  0.06550789
Direct configuration=     8
   0.13110434  0.98020263  0.97480747
  -0.00219114  0.00016835  0.00072556
   0.16811367  0.89740021  0.99837782
   0.19843927  0.04725446  0.99839702
   0.13388150  0.97978055  0.90157670
  -0.00396764  0.00061381  0.06564542
Direct configuration=     9
   0.13111024  0.98020180  0.97481738
  -0.00217467  0.00016470  0.00072153
   0.16813075  0.89740555  0.99837382
   0.19845214  0.04724507  0.99839306
   0.13386278  0.97978379  0.90157404
  -0.00400124  0.00061910  0.06565017
Direct configuration=    10
   0.13153674  0.98013773  0.97474417
  -0.00178360  0.00008461  0.00089143
   0.16842797  0.89739221  0.99834066
   0.19869255  0.04718351  0.99836101
   0.13337748  0.97986779  0.90159958
  -0.00487115  0.00075416  0.06559316
Direct configuration=    11
   0.13170908  0.98011184  0.97471459
  -0.00162558  0.00005224  0.00096008
   0.16854806  0.89738682  0.99832726
   0.19878969  0.04715864  0.99834805
   0.13318140  0.97990173  0.90160989
  -0.00522264  0.00080873  0.06557012
Direct configuration=    12
   0.13175872  0.98010243  0.97464618
  -0.00149220  0.00002755  0.00090690
   0.16864164  0.89720988  0.99834061
   0.19892102  0.04730619  0.99836587
   0.13301728  0.97992870  0.90160315
  -0.00546647  0.00084525  0.06566730
Direct configuration=    13
   0.13175246  0.98010362  0.97465481
  -0.00150904  0.00003067  0.00091362
   0.16862983  0.89723222  0.99833892
   0.19890444  0.04728756  0.99836362
   0.13303800  0.97992529  0.90160400
  -0.00543569  0.00084064  0.06565503
Direct configuration=    14
   0.13184011  0.98008707  0.97468195
  -0.00155127  0.00003884  0.00095526
   0.16867489  0.89708261  0.99832941
   0.19898145  0.04742315  0.99836013
   0.13295489  0.97993752  0.90155052
  -0.00552008  0.00085080  0.06565274
Direct configuration=    15
   0.13186423  0.98008252  0.97468941
  -0.00156289  0.00004109  0.00096671
   0.16868728  0.89704146  0.99832679
   0.19900263  0.04746045  0.99835917
   0.13293203  0.97994088  0.90153581
  -0.00554329  0.00085360  0.06565210
Direct configuration=    16
   0.13185482  0.98008430  0.97468650
  -0.00155835  0.00004022  0.00096224
   0.16868245  0.89705751  0.99832781
   0.19899437  0.04744590  0.99835954
   0.13294095  0.97993957  0.90154155
  -0.00553423  0.00085251  0.06565235
Direct configuration=    17
   0.13185009  0.98008519  0.97468504
  -0.00155607  0.00003977  0.00095999
   0.16868002  0.89706559  0.99832833
   0.19899021  0.04743858  0.99835973
   0.13294544  0.97993891  0.90154444
  -0.00552968  0.00085196  0.06565247
Direct configuration=    18
   0.13188100  0.98008105  0.97472011
  -0.00157881  0.00004519  0.00096235
   0.16866502  0.89706849  0.99830010
   0.19896504  0.04744295  0.99833430
   0.13294651  0.97993738  0.90155436
  -0.00549877  0.00084495  0.06565877
Direct configuration=    19
   0.13188411  0.98008063  0.97472364
  -0.00158109  0.00004573  0.00096259
   0.16866351  0.89706878  0.99829727
   0.19896251  0.04744339  0.99833175
   0.13294662  0.97993722  0.90155536
  -0.00549566  0.00084424  0.06565940
Direct configuration=    20
   0.13188288  0.98008307  0.97473625
  -0.00156703  0.00003381  0.00096310
   0.16864926  0.89706152  0.99827512
   0.19894295  0.04746258  0.99831267
   0.13294376  0.97993869  0.90157582
  -0.00547183  0.00084033  0.06566704
Direct configuration=    21
   0.13188172  0.98008537  0.97474818
  -0.00155373  0.00002253  0.00096357
   0.16863579  0.89705466  0.99825419
   0.19892446  0.04748072  0.99829463
   0.13294106  0.97994008  0.90159517
  -0.00544929  0.00083664  0.06567426
Direct configuration=    22
   0.13186544  0.98008746  0.97473651
  -0.00155394  0.00001592  0.00098692
   0.16863183  0.89703201  0.99823493
   0.19891810  0.04751297  0.99827949
   0.13294024  0.97994089  0.90161801
  -0.00542166  0.00083074  0.06567413
Direct configuration=    23
   0.13186118  0.98008801  0.97473346
  -0.00155399  0.00001420  0.00099303
   0.16863079  0.89702609  0.99822989
   0.19891644  0.04752140  0.99827553
   0.13294002  0.97994110  0.90162399
  -0.00541444  0.00082920  0.06567409
Direct configuration=    24
   0.13185065  0.98008986  0.97473353
  -0.00155358  0.00000730  0.00099919
   0.16863183  0.89701154  0.99821870
   0.19891269  0.04754306  0.99826711
   0.13293360  0.97994335  0.90162142
  -0.00539520  0.00082490  0.06569004
Direct configuration=    25
   0.13184064  0.98009161  0.97473360
  -0.00155318  0.00000075  0.00100505
   0.16863282  0.89699770  0.99820805
   0.19890914  0.04756365  0.99825911
   0.13292750  0.97994548  0.90161898
  -0.00537692  0.00082081  0.06570521
Direct configuration=    26
   0.13184980  0.98008918  0.97473985
  -0.00155271  0.00000605  0.00101768
   0.16863256  0.89699361  0.99819706
   0.19889574  0.04757100  0.99825051
   0.13291264  0.97994691  0.90160519
  -0.00535803  0.00081325  0.06571971
Direct configuration=    27
   0.13185984  0.98008651  0.97474670
  -0.00155220  0.00001186  0.00103154
   0.16863227  0.89698912  0.99818502
   0.19888105  0.04757906  0.99824108
   0.13289635  0.97994848  0.90159006
  -0.00533731  0.00080497  0.06573560
Direct configuration=    28
   0.13186188  0.98008599  0.97474300
  -0.00154750  0.00001333  0.00104196
   0.16863279  0.89698773  0.99817901
   0.19887344  0.04758295  0.99823643
   0.13288526  0.97994987  0.90158545
  -0.00532588  0.00080013  0.06574415
Direct configuration=    29
   0.13186396  0.98008545  0.97473923
  -0.00154272  0.00001484  0.00105255
   0.16863331  0.89698632  0.99817290
   0.19886571  0.04758689  0.99823171
   0.13287400  0.97995129  0.90158076
  -0.00531426  0.00079521  0.06575284
Direct configuration=    30
   0.13185920  0.98008710  0.97473039
  -0.00153544  0.00001022  0.00105432
   0.16863486  0.89698740  0.99817107
   0.19886327  0.04758922  0.99823054
   0.13286513  0.97995339  0.90158379
  -0.00530702  0.00079267  0.06575989
Direct configuration=    31
   0.13185269  0.98008935  0.97471829
  -0.00152548  0.00000390  0.00105673
   0.16863698  0.89698888  0.99816857
   0.19885993  0.04759241  0.99822893
   0.13285298  0.97995626  0.90158795
  -0.00529710  0.00078919  0.06576953
